LAMMPS Description

  3 atoms
  2 atom types
  -10.0 10.0 xlo xhi
  -10.0 10.0 ylo yhi
  -10.0 10.0 zlo zhi


Masses

1 1.008 # H
2 15.9994 # O

Atoms

1 1 0.4238 0.7493682 0.0000000 0.4424329
2 2 -0.8476 0.0000000 0.0000000 -0.1653507
3 1 0.4238 -0.7493682 0.0000000 0.4424329