LAMMPS Description

  21 atoms
  14 bonds
  7 angles

  2 atom types
  1 bond types
  1 angle types

  0.0 6.0 xlo xhi
  0.0 6.0 ylo yhi
  0.0 6.0 zlo zhi


Masses

1 15.9994 # O
2 1.008 # H

Atoms

1 1 2 0.4238 4.978146 3.160309 2.519717
2 1 1 -0.8476 5.220404 2.390845 1.990387
3 1 2 0.4238 4.831954 2.607789 1.134235
4 2 2 0.4238 0.697096 5.304954 2.188812
5 2 1 -0.8476 1.562472 5.083093 2.553306
6 2 2 0.4238 1.554942 4.119163 2.511634
7 3 2 0.4238 2.682957 3.114405 1.846747
8 3 1 -0.8476 2.398537 3.258275 0.936055
9 3 2 0.4238 2.150031 2.367187 0.661898
10 4 2 0.4238 3.474513 1.957129 2.692771
11 4 1 -0.8476 2.888311 1.506022 2.073236
12 4 2 0.4238 2.023349 1.652343 2.474963
13 5 2 0.4238 2.086522 3.470731 3.938135
14 5 1 -0.8476 1.261292 3.193293 4.354041
15 5 2 0.4238 1.323039 3.614819 5.219752
16 6 2 0.4238 3.919554 2.668472 4.76448
17 6 1 -0.8476 3.328007 2.112286 5.285713
18 6 2 0.4238 2.979156 1.510877 4.61671
19 7 2 0.4238 4.925928 4.991358 2.034271
20 7 1 -0.8476 4.246888 5.258229 2.66565
21 7 2 0.4238 3.500446 4.707621 2.399929

Bonds

1 1 1 2 
2 1 2 3 
3 1 4 5 
4 1 5 6 
5 1 7 8 
6 1 8 9 
7 1 10 11 
8 1 11 12 
9 1 13 14 
10 1 14 15 
11 1 16 17 
12 1 17 18 
13 1 19 20 
14 1 20 21 

Angles

1 1 1 2 3 
2 1 4 5 6 
3 1 7 8 9 
4 1 10 11 12 
5 1 13 14 15 
6 1 16 17 18 
7 1 19 20 21 
