LAMMPS Description

  801 atoms
  534 bonds
  267 angles

  2 atom types
  1 bond types
  1 angle types

  0.0 20.0 xlo xhi
  0.0 20.0 ylo yhi
  0.0 20.0 zlo zhi


Masses

1 1.008 # H
2 15.9994 # O

Atoms

1 1 1 0.4238 16.599888 11.014948 2.793991
2 1 2 -0.8476 16.21052 10.539676 3.537941
3 1 1 0.4238 15.438381 10.12939 3.129995
4 2 1 0.4238 18.987333 8.297522 2.923379
5 2 2 -0.8476 18.592335 9.089588 3.307517
6 2 1 0.4238 19.256827 9.76019 3.108273
7 3 1 0.4238 13.302921 5.580555 11.683277
8 3 2 -0.8476 12.439557 5.149937 11.672151
9 3 1 0.4238 12.079436 5.447546 10.827938
10 4 1 0.4238 8.378669 1.679149 7.805172
11 4 2 -0.8476 7.68149 1.068932 7.535857
12 4 1 0.4238 7.374878 0.729422 8.385372
13 5 1 0.4238 3.758199 5.460637 0.74672
14 5 2 -0.8476 3.826796 4.499366 0.793689
15 5 1 0.4238 2.902909 4.230125 0.723714
16 6 1 0.4238 4.887321 19.281298 0.76134
17 6 2 -0.8476 4.152052 18.656749 0.744863
18 6 1 0.4238 3.389014 19.247259 0.74992
19 7 1 0.4238 18.45932 16.106935 6.261803
20 7 2 -0.8476 19.283859 15.723521 6.584421
21 7 1 0.4238 19.027927 14.807213 6.745145
22 8 1 0.4238 8.296728 11.64604 15.567553
23 8 2 -0.8476 7.388892 11.727344 15.251045
24 8 1 0.4238 7.312926 10.964043 14.665764
25 9 1 0.4238 11.574257 16.513748 15.65507
26 9 2 -0.8476 11.003151 16.231114 14.930564
27 9 1 0.4238 11.540408 16.445322 14.158279
28 10 1 0.4238 13.555465 17.692102 9.461289
29 10 2 -0.8476 14.171579 17.566635 10.193147
30 10 1 0.4238 15.017319 17.778957 9.780114
31 11 1 0.4238 11.737616 1.717806 6.506115
32 11 2 -0.8476 10.978266 1.347638 6.972289
33 11 1 0.4238 11.400819 0.734748 7.586104
34 12 1 0.4238 3.234748 11.984127 5.380302
35 12 2 -0.8476 2.780031 12.053696 6.228445
36 12 1 0.4238 2.256352 12.855149 6.108501
37 13 1 0.4238 18.599239 17.853987 16.588977
38 13 2 -0.8476 19.269688 18.403823 16.165737
39 13 1 0.4238 19.101401 19.265891 16.565075
40 14 1 0.4238 6.190305 19.187975 17.011891
41 14 2 -0.8476 5.266119 19.279642 16.750298
42 14 1 0.4238 5.327042 19.243987 15.788025
43 15 1 0.4238 0.708548 17.908424 12.297356
44 15 2 -0.8476 1.010459 16.992187 12.279718
45 15 1 0.4238 1.442327 16.908243 13.138437
46 16 1 0.4238 13.021795 2.146536 0.725514
47 16 2 -0.8476 12.23886 1.599433 0.86206
48 16 1 0.4238 11.879974 1.965778 1.67934
49 17 1 0.4238 13.366883 0.749834 16.593198
50 17 2 -0.8476 13.877949 1.246518 15.94276
51 17 1 0.4238 14.701924 0.745439 15.912129
52 18 1 0.4238 2.220522 0.74286 5.330319
53 18 2 -0.8476 1.46062 0.746312 4.735769
54 18 1 0.4238 0.731318 0.910927 5.345666
55 19 1 0.4238 6.876671 11.54497 0.712561
56 19 2 -0.8476 6.690855 10.823203 1.325324
57 19 1 0.4238 6.502775 10.093656 0.722546
58 20 1 0.4238 10.012898 5.256662 16.151081
59 20 2 -0.8476 9.524759 4.966095 15.371181
60 20 1 0.4238 9.510968 4.008696 15.49013
61 21 1 0.4238 11.680292 12.533576 19.249803
62 21 2 -0.8476 12.258638 13.305812 19.260802
63 21 1 0.4238 13.133671 12.899281 19.262541
64 22 1 0.4238 5.925356 5.91789 10.84416
65 22 2 -0.8476 5.167837 6.363972 11.241815
66 22 1 0.4238 5.364431 6.28915 12.183466
67 23 1 0.4238 8.204785 17.160784 17.06163
68 23 2 -0.8476 8.85421 17.217414 16.350297
69 23 1 0.4238 9.438939 17.915346 16.66957
70 24 1 0.4238 6.108338 8.870257 13.35215
71 24 2 -0.8476 5.840722 8.985927 12.432391
72 24 1 0.4238 5.300016 9.783558 12.481112
73 25 1 0.4238 17.462889 9.289772 18.460384
74 25 2 -0.8476 18.131537 9.879997 18.828484
75 25 1 0.4238 18.733507 9.257872 19.254565
76 26 1 0.4238 12.289386 4.748463 14.696222
77 26 2 -0.8476 12.83892 3.957593 14.637138
78 26 1 0.4238 12.273135 3.291011 15.045192
79 27 1 0.4238 7.142609 10.791767 10.706624
80 27 2 -0.8476 7.783498 11.132061 11.342561
81 27 1 0.4238 8.491864 11.441606 10.765194
82 28 1 0.4238 1.650032 14.440626 15.080097
83 28 2 -0.8476 0.733335 14.274861 15.331379
84 28 1 0.4238 0.795437 14.230275 16.293205
85 29 1 0.4238 2.323279 15.584082 5.776776
86 29 2 -0.8476 3.032694 16.218954 5.933691
87 29 1 0.4238 3.256213 16.043934 6.855841
88 30 1 0.4238 17.844617 11.525892 5.516113
89 30 2 -0.8476 18.37365 11.78096 4.750594
90 30 1 0.4238 19.255243 11.859031 5.134849
91 31 1 0.4238 8.338938 19.273893 2.130631
92 31 2 -0.8476 7.895644 19.259685 2.98751
93 31 1 0.4238 6.965643 19.254721 2.730551
94 32 1 0.4238 1.818855 1.617872 10.608379
95 32 2 -0.8476 1.30562 0.976977 11.11513
96 32 1 0.4238 1.924072 0.735461 11.815231
97 33 1 0.4238 19.215111 0.740269 4.882932
98 33 2 -0.8476 19.313465 1.470706 5.505622
99 33 1 0.4238 19.263395 2.237708 4.922395
100 34 1 0.4238 10.113889 12.096527 3.232946
101 34 2 -0.8476 9.353523 12.4463 2.752888
102 34 1 0.4238 8.669233 11.800242 2.965749
103 35 1 0.4238 6.405675 5.542108 4.367038
104 35 2 -0.8476 5.821238 5.045663 3.781436
105 35 1 0.4238 5.276121 4.558031 4.410735
106 36 1 0.4238 10.446574 13.958292 0.733639
107 36 2 -0.8476 11.400791 14.100353 0.749204
108 36 1 0.4238 11.661738 13.613506 1.540305
109 37 1 0.4238 3.370305 13.174933 0.722487
110 37 2 -0.8476 2.950326 14.043141 0.750545
111 37 1 0.4238 3.712141 14.634143 0.714371
112 38 1 0.4238 0.74281 5.33976 16.161809
113 38 2 -0.8476 0.714237 5.330615 15.197416
114 38 1 0.4238 0.724955 6.272617 14.98892
115 39 1 0.4238 12.245401 12.127969 10.901792
116 39 2 -0.8476 11.375501 12.438061 10.622379
117 39 1 0.4238 11.585506 12.915344 9.810558
118 40 1 0.4238 19.263771 3.51548 10.884966
119 40 2 -0.8476 19.253738 4.263106 10.275122
120 40 1 0.4238 19.253112 5.014173 10.880804
121 41 1 0.4238 8.356083 1.201246 17.851229
122 41 2 -0.8476 8.394229 0.885865 16.940168
123 41 1 0.4238 9.340481 0.741489 16.818856
124 42 1 0.4238 8.577954 19.287252 6.435622
125 42 2 -0.8476 8.090441 18.888534 5.704658
126 42 1 0.4238 7.20325 19.24272 5.840294
127 43 1 0.4238 17.511264 4.771564 3.986702
128 43 2 -0.8476 17.203993 3.864164 4.101427
129 43 1 0.4238 17.449024 3.462903 3.258869
130 44 1 0.4238 16.53705 6.236414 0.712193
131 44 2 -0.8476 16.662127 5.852595 1.588545
132 44 1 0.4238 16.672309 6.637212 2.149996
133 45 1 0.4238 8.830412 1.022037 4.076634
134 45 2 -0.8476 9.409331 0.743311 4.796438
135 45 1 0.4238 10.277474 0.7723 4.37639
136 46 1 0.4238 14.827833 16.131015 7.589868
137 46 2 -0.8476 15.094376 15.356547 7.07986
138 46 1 0.4238 14.489239 15.394433 6.329308
139 47 1 0.4238 0.73318 3.142987 13.531755
140 47 2 -0.8476 1.316969 3.241612 12.769904
141 47 1 0.4238 0.727479 3.638678 12.117376
142 48 1 0.4238 3.300214 19.249886 7.881461
143 48 2 -0.8476 4.24104 19.256486 7.667555
144 48 1 0.4238 4.292111 18.588424 6.973265
145 49 1 0.4238 13.822811 8.82084 1.331069
146 49 2 -0.8476 13.961226 8.080558 0.72793
147 49 1 0.4238 14.10227 7.348417 1.340327
148 50 1 0.4238 10.455536 14.774884 3.752052
149 50 2 -0.8476 11.092543 15.454702 3.501007
150 50 1 0.4238 11.910859 15.109952 3.878448
151 51 1 0.4238 13.511781 14.849722 10.139728
152 51 2 -0.8476 14.299419 14.867006 10.696757
153 51 1 0.4238 15.006481 14.897994 10.04097
154 52 1 0.4238 10.131432 14.837171 11.134329
155 52 2 -0.8476 10.633021 15.228605 11.859685
156 52 1 0.4238 11.252855 15.798438 11.388465
157 53 1 0.4238 3.608663 4.565371 9.762177
158 53 2 -0.8476 3.789355 5.123856 8.996411
159 53 1 0.4238 3.453286 4.582849 8.271619
160 54 1 0.4238 1.410942 0.743228 14.690436
161 54 2 -0.8476 1.344044 0.977572 15.624011
162 54 1 0.4238 2.212747 0.721091 15.956465
163 55 1 0.4238 9.713242 16.889016 0.733019
164 55 2 -0.8476 9.576849 16.859174 1.687723
165 55 1 0.4238 9.032992 16.068351 1.786574
166 56 1 0.4238 14.807052 11.317357 0.73165
167 56 2 -0.8476 14.951421 12.250916 0.928064
168 56 1 0.4238 14.093456 12.635141 0.710761
169 57 1 0.4238 17.137382 19.26045 0.777652
170 57 2 -0.8476 17.934201 18.7181 0.734177
171 57 1 0.4238 18.568463 19.256489 1.222849
172 58 1 0.4238 19.285259 4.763023 16.725936
173 58 2 -0.8476 19.067996 3.893295 16.369112
174 58 1 0.4238 18.995016 4.077971 15.424907
175 59 1 0.4238 14.614483 10.755395 11.154344
176 59 2 -0.8476 15.14554 10.006842 10.856685
177 59 1 0.4238 15.761489 9.895165 11.590912
178 60 1 0.4238 5.012161 10.746683 7.160619
179 60 2 -0.8476 4.702678 9.920057 7.550316
180 60 1 0.4238 4.553852 9.374704 6.768398
181 61 1 0.4238 8.982639 6.191457 5.749374
182 61 2 -0.8476 9.742513 6.527812 5.259058
183 61 1 0.4238 9.720412 7.467371 5.477446
184 62 1 0.4238 13.296791 15.517943 17.552558
185 62 2 -0.8476 13.834239 14.743314 17.34749
186 62 1 0.4238 13.932073 14.816507 16.390398
187 63 1 0.4238 19.296143 0.740398 18.086202
188 63 2 -0.8476 19.251807 1.318119 17.314693
189 63 1 0.4238 18.837033 0.743952 16.659522
190 64 1 0.4238 14.176661 17.342851 15.335894
191 64 2 -0.8476 14.817911 16.870375 14.791358
192 64 1 0.4238 14.28208 16.611944 14.031719
193 65 1 0.4238 9.125644 14.253699 7.337832
194 65 2 -0.8476 9.575981 13.678654 6.707377
195 65 1 0.4238 9.983361 13.025623 7.289223
196 66 1 0.4238 15.521279 6.774439 13.744629
197 66 2 -0.8476 14.825266 6.126198 13.906808
198 66 1 0.4238 14.465659 6.426877 14.750152
199 67 1 0.4238 4.351888 16.975117 9.198896
200 67 2 -0.8476 5.075487 17.025475 9.835153
201 67 1 0.4238 5.496924 16.164409 9.726017
202 68 1 0.4238 6.16014 3.33599 18.979847
203 68 2 -0.8476 5.274922 3.438057 19.349879
204 68 1 0.4238 4.717177 3.278512 18.578892
205 69 1 0.4238 9.880215 7.484894 1.204861
206 69 2 -0.8476 10.480805 7.396347 1.954798
207 69 1 0.4238 11.299717 7.761367 1.598291
208 70 1 0.4238 18.475702 2.067662 8.055572
209 70 2 -0.8476 19.256672 1.664963 8.454163
210 70 1 0.4238 19.175793 0.747225 8.167512
211 71 1 0.4238 5.787497 16.43646 0.73197
212 71 2 -0.8476 6.33667 16.978242 1.311483
213 71 1 0.4238 6.913208 17.424504 0.679496
214 72 1 0.4238 17.859063 0.745956 2.118204
215 72 2 -0.8476 18.73136 1.148676 2.206905
216 72 1 0.4238 18.938798 1.377815 1.292893
217 73 1 0.4238 11.820053 11.157853 16.873034
218 73 2 -0.8476 11.101832 10.807461 16.33235
219 73 1 0.4238 10.420053 10.636572 16.993355
220 74 1 0.4238 0.743652 5.618465 2.507483
221 74 2 -0.8476 1.622311 6.00016 2.392499
222 74 1 0.4238 2.113542 5.590351 3.114789
223 75 1 0.4238 14.550903 19.27964 13.421884
224 75 2 -0.8476 14.521891 19.123602 12.470167
225 75 1 0.4238 13.588388 19.267489 12.273134
226 76 1 0.4238 13.223331 10.151218 19.251049
227 76 2 -0.8476 12.325427 9.79891 19.226534
228 76 1 0.4238 12.475225 8.892167 18.932714
229 77 1 0.4238 16.809747 11.907252 8.035294
230 77 2 -0.8476 16.948881 12.835772 8.25766
231 77 1 0.4238 16.848407 13.263493 7.398641
232 78 1 0.4238 15.18374 9.075975 15.711597
233 78 2 -0.8476 14.521955 8.695468 16.301688
234 78 1 0.4238 13.918714 9.437601 16.429334
235 79 1 0.4238 7.655817 10.825954 8.005644
236 79 2 -0.8476 7.610316 11.773494 8.181854
237 79 1 0.4238 7.385031 12.127073 7.312842
238 80 1 0.4238 15.483404 0.682743 12.250323
239 80 2 -0.8476 15.654334 0.758013 13.196933
240 80 1 0.4238 16.618558 0.74043 13.22721
241 81 1 0.4238 9.273125 0.712571 11.180258
242 81 2 -0.8476 9.391288 0.916142 10.244549
243 81 1 0.4238 10.330826 0.736192 10.118693
244 82 1 0.4238 8.419076 7.008328 17.547533
245 82 2 -0.8476 7.630075 6.474599 17.701042
246 82 1 0.4238 7.480837 6.084975 16.831057
247 83 1 0.4238 17.476853 6.693481 8.030533
248 83 2 -0.8476 16.758079 6.3438 8.57094
249 83 1 0.4238 17.207943 5.660834 9.08293
250 84 1 0.4238 5.873164 3.029845 15.451337
251 84 2 -0.8476 6.136007 3.524355 16.237038
252 84 1 0.4238 7.037393 3.210256 16.377746
253 85 1 0.4238 0.743717 15.372016 19.271083
254 85 2 -0.8476 1.487215 15.446196 18.660623
255 85 1 0.4238 2.235686 15.514178 19.265705
256 86 1 0.4238 0.737525 17.781363 6.24532
257 86 2 -0.8476 0.857507 18.524637 6.848729
258 86 1 0.4238 0.964139 19.262843 6.236654
259 87 1 0.4238 15.716212 3.034424 8.919358
260 87 2 -0.8476 15.152439 3.816552 8.956627
261 87 1 0.4238 14.295235 3.45664 8.698522
262 88 1 0.4238 8.571849 19.266602 13.300222
263 88 2 -0.8476 8.891416 19.017149 14.175781
264 88 1 0.4238 9.576341 18.37223 13.961513
265 89 1 0.4238 19.270242 6.591099 5.061252
266 89 2 -0.8476 19.219862 7.008617 5.929637
267 89 1 0.4238 19.297448 7.943922 5.70572
268 90 1 0.4238 17.147528 8.991306 13.788969
269 90 2 -0.8476 17.670113 9.771288 13.566513
270 90 1 0.4238 17.464463 10.364403 14.299231
271 91 1 0.4238 0.743011 18.121725 19.258883
272 91 2 -0.8476 0.74738 18.700683 18.48704
273 91 1 0.4238 1.50788 19.266591 18.666879
274 92 1 0.4238 11.385557 4.339463 4.990321
275 92 2 -0.8476 11.117162 3.872987 4.189498
276 92 1 0.4238 11.753728 3.148586 4.158172
277 93 1 0.4238 11.374776 16.49778 19.25707
278 93 2 -0.8476 11.623635 17.429993 19.258641
279 93 1 0.4238 11.694759 17.618721 18.315096
280 94 1 0.4238 16.11889 4.926276 11.797998
281 94 2 -0.8476 16.659461 4.247156 11.376652
282 94 1 0.4238 16.80097 3.626829 12.101995
283 95 1 0.4238 1.025918 19.263666 9.925943
284 95 2 -0.8476 0.73805 18.404968 9.593191
285 95 1 0.4238 1.569996 17.917948 9.552804
286 96 1 0.4238 12.360243 19.225235 16.18504
287 96 2 -0.8476 11.653729 19.259595 15.52883
288 96 1 0.4238 12.131471 19.071944 14.711821
289 97 1 0.4238 2.484104 7.066918 17.405227
290 97 2 -0.8476 2.135513 7.754707 16.82524
291 97 1 0.4238 1.240707 7.869212 17.167531
292 98 1 0.4238 17.87832 9.725176 0.729452
293 98 2 -0.8476 17.421038 8.875628 0.740208
294 98 1 0.4238 16.496123 9.147773 0.777931
295 99 1 0.4238 19.249869 2.057013 13.216212
296 99 2 -0.8476 19.060519 1.678556 14.083316
297 99 1 0.4238 19.272314 0.747478 13.944788
298 100 1 0.4238 15.738334 11.26216 19.290323
299 100 2 -0.8476 15.883931 12.215896 19.302284
300 100 1 0.4238 16.846648 12.270819 19.268927
301 101 1 0.4238 13.522072 1.094057 3.705465
302 101 2 -0.8476 14.16312 1.563507 3.158082
303 101 1 0.4238 14.575041 0.840628 2.669491
304 102 1 0.4238 13.973359 11.57329 8.608359
305 102 2 -0.8476 14.153461 12.461721 8.938824
306 102 1 0.4238 14.20643 12.97137 8.121263
307 103 1 0.4238 10.677937 7.913563 12.995777
308 103 2 -0.8476 10.665136 7.05722 12.551405
309 103 1 0.4238 10.639862 6.446018 13.29756
310 104 1 0.4238 16.486865 0.735372 6.486109
311 104 2 -0.8476 16.586961 1.142018 5.616872
312 104 1 0.4238 15.896677 0.698754 5.108957
313 105 1 0.4238 14.425516 12.084305 16.975859
314 105 2 -0.8476 15.261419 12.4227 16.632771
315 105 1 0.4238 15.78919 11.617852 16.564733
316 106 1 0.4238 10.458745 3.710142 12.927046
317 106 2 -0.8476 10.033428 3.147284 12.268829
318 106 1 0.4238 10.757989 2.976095 11.655103
319 107 1 0.4238 7.120757 5.458937 14.131242
320 107 2 -0.8476 7.074475 4.660441 13.591598
321 107 1 0.4238 7.901829 4.705931 13.097261
322 108 1 0.4238 0.737722 3.630926 19.251101
323 108 2 -0.8476 1.453843 3.850718 18.642975
324 108 1 0.4238 2.170758 4.069809 19.250417
325 109 1 0.4238 5.825351 8.508944 9.626122
326 109 2 -0.8476 6.124548 7.895264 8.944336
327 109 1 0.4238 5.296772 7.480934 8.672177
328 110 1 0.4238 3.199017 3.135281 14.771984
329 110 2 -0.8476 2.644128 3.400422 15.515457
330 110 1 0.4238 3.233557 3.255565 16.265487
331 111 1 0.4238 16.659429 14.58391 4.847826
332 111 2 -0.8476 16.555001 15.132757 4.061178
333 111 1 0.4238 16.397485 16.003661 4.445455
334 112 1 0.4238 3.967368 14.22453 16.544808
335 112 2 -0.8476 3.419985 13.685532 17.128595
336 112 1 0.4238 3.314067 12.877364 16.612264
337 113 1 0.4238 8.422932 4.856203 10.401756
338 113 2 -0.8476 9.170772 4.440352 9.955934
339 113 1 0.4238 8.82231 3.562345 9.759386
340 114 1 0.4238 4.172283 9.273458 19.31989
341 114 2 -0.8476 3.460419 9.303213 18.669262
342 114 1 0.4238 2.67694 9.232226 19.2279
343 115 1 0.4238 2.629903 1.687716 7.982195
344 115 2 -0.8476 2.429131 0.74826 8.072008
345 115 1 0.4238 1.465409 0.745215 8.025272
346 116 1 0.4238 8.782261 6.914564 8.616014
347 116 2 -0.8476 8.756451 7.690447 8.043045
348 116 1 0.4238 8.812111 8.411564 8.681673
349 117 1 0.4238 3.450604 6.101416 5.768906
350 117 2 -0.8476 3.928838 6.588075 6.451115
351 117 1 0.4238 3.208003 6.984487 6.955304
352 118 1 0.4238 6.011847 2.798594 1.412651
353 118 2 -0.8476 5.507387 2.323911 0.740974
354 118 1 0.4238 5.475865 1.432395 1.108615
355 119 1 0.4238 0.740402 4.924257 7.979691
356 119 2 -0.8476 0.772286 4.58508 8.882407
357 119 1 0.4238 0.748904 5.398039 9.401546
358 120 1 0.4238 10.61476 11.075035 0.730336
359 120 2 -0.8476 10.284655 10.168446 0.739404
360 120 1 0.4238 9.329551 10.304421 0.754903
361 121 1 0.4238 4.366384 14.671121 11.736907
362 121 2 -0.8476 3.405411 14.748963 11.774665
363 121 1 0.4238 3.253024 15.570361 11.291926
364 122 1 0.4238 16.641149 2.777694 0.721701
365 122 2 -0.8476 15.771366 2.787019 1.139246
366 122 1 0.4238 15.371774 3.574015 0.749481
367 123 1 0.4238 19.269718 12.867586 18.115375
368 123 2 -0.8476 19.286787 12.478734 17.232507
369 123 1 0.4238 18.355284 12.510227 16.982981
370 124 1 0.4238 19.27492 5.982192 0.743608
371 124 2 -0.8476 19.233386 5.033449 0.914238
372 124 1 0.4238 19.261135 5.003071 1.87822
373 125 1 0.4238 3.480954 8.188015 1.019804
374 125 2 -0.8476 2.574641 8.370681 0.74379
375 125 1 0.4238 2.147769 8.575119 1.584587
376 126 1 0.4238 17.311047 19.265678 9.481415
377 126 2 -0.8476 17.841934 19.106429 10.271195
378 126 1 0.4238 18.736717 19.25809 9.943603
379 127 1 0.4238 16.768413 13.595101 14.656286
380 127 2 -0.8476 16.107802 14.284529 14.794981
381 127 1 0.4238 16.525273 14.826361 15.475487
382 128 1 0.4238 19.267147 17.001559 11.482647
383 128 2 -0.8476 19.28417 17.703232 12.144704
384 128 1 0.4238 19.256449 17.200914 12.968027
385 129 1 0.4238 10.298022 10.724002 8.760256
386 129 2 -0.8476 10.536677 10.398816 7.883756
387 129 1 0.4238 11.43271 10.741713 7.781286
388 130 1 0.4238 0.867086 2.405917 1.078258
389 130 2 -0.8476 0.754266 2.943039 1.87181
390 130 1 0.4238 0.738146 2.27257 2.565471
391 131 1 0.4238 9.184056 10.962535 5.559172
392 131 2 -0.8476 9.410412 10.167679 5.061256
393 131 1 0.4238 10.370754 10.143071 5.151206
394 132 1 0.4238 11.307246 0.735396 13.341772
395 132 2 -0.8476 11.885433 0.732831 14.114202
396 132 1 0.4238 11.249094 0.747461 14.839331
397 133 1 0.4238 14.86281 19.253217 17.323277
398 133 2 -0.8476 15.604212 19.252227 16.705803
399 133 1 0.4238 16.361139 19.281925 17.303409
400 134 1 0.4238 14.009242 3.894305 17.123754
401 134 2 -0.8476 14.55446 4.681298 17.243474
402 134 1 0.4238 15.266064 4.347353 17.802987
403 135 1 0.4238 6.535155 15.137323 16.177032
404 135 2 -0.8476 7.05173 14.387847 15.857048
405 135 1 0.4238 7.486479 14.086587 16.664011
406 136 1 0.4238 6.8393 19.273292 8.565872
407 136 2 -0.8476 6.642257 19.26147 9.510323
408 136 1 0.4238 7.525292 19.287097 9.898326
409 137 1 0.4238 8.176707 0.691689 13.701536
410 137 2 -0.8476 8.72662 1.432083 13.985023
411 137 1 0.4238 8.077866 2.141331 14.06893
412 138 1 0.4238 14.965903 6.64829 19.277966
413 138 2 -0.8476 15.036552 7.39056 18.665595
414 138 1 0.4238 15.099207 8.141058 19.268738
415 139 1 0.4238 4.679272 0.843496 17.165953
416 139 2 -0.8476 5.629951 0.888028 17.324633
417 139 1 0.4238 5.68144 0.721968 18.273699
418 140 1 0.4238 12.309222 5.355574 0.729844
419 140 2 -0.8476 11.745643 4.579716 0.836506
420 140 1 0.4238 10.863848 4.959346 0.740216
421 141 1 0.4238 13.124239 14.123798 13.854846
422 141 2 -0.8476 12.702633 13.848867 13.031672
423 141 1 0.4238 11.951506 13.336259 13.354155
424 142 1 0.4238 11.026082 2.820394 17.449683
425 142 2 -0.8476 11.243626 2.909401 18.385475
426 142 1 0.4238 10.757568 2.171976 18.773943
427 143 1 0.4238 4.030027 17.355661 14.267066
428 143 2 -0.8476 4.113564 16.578726 13.701074
429 143 1 0.4238 4.175156 15.866206 14.348743
430 144 1 0.4238 8.289528 16.668064 10.230869
431 144 2 -0.8476 7.978629 16.547126 11.136225
432 144 1 0.4238 8.610509 17.077762 11.636333
433 145 1 0.4238 16.230436 1.776778 17.951847
434 145 2 -0.8476 16.55345 0.897474 18.183015
435 145 1 0.4238 16.761308 1.001494 19.119459
436 146 1 0.4238 3.965891 3.081919 12.049882
437 146 2 -0.8476 4.773181 3.312635 12.525284
438 146 1 0.4238 5.411243 3.394615 11.806181
439 147 1 0.4238 6.549467 0.911476 11.495717
440 147 2 -0.8476 5.97315 0.70202 10.750774
441 147 1 0.4238 5.099292 0.740773 11.157987
442 148 1 0.4238 12.526699 19.251825 1.201456
443 148 2 -0.8476 11.950187 18.625494 0.747258
444 148 1 0.4238 12.295155 17.778397 1.054466
445 149 1 0.4238 1.790917 9.0007 8.174479
446 149 2 -0.8476 0.85782 8.851265 8.369297
447 149 1 0.4238 0.747296 7.926569 8.116958
448 150 1 0.4238 1.584584 15.250559 8.886156
449 150 2 -0.8476 0.729946 14.821347 8.758391
450 150 1 0.4238 0.743984 14.627004 7.813411
451 151 1 0.4238 11.427819 13.743133 16.021772
452 151 2 -0.8476 10.979533 13.788113 16.874983
453 151 1 0.4238 10.137786 13.358433 16.680583
454 152 1 0.4238 5.400469 6.81388 19.273313
455 152 2 -0.8476 4.985017 6.10749 18.764033
456 152 1 0.4238 4.172665 5.954478 19.261652
457 153 1 0.4238 1.492021 16.889958 16.320544
458 153 2 -0.8476 2.436036 16.713102 16.412801
459 153 1 0.4238 2.693351 17.352384 17.088125
460 154 1 0.4238 5.796459 16.940596 4.006532
461 154 2 -0.8476 6.594067 16.893483 4.547417
462 154 1 0.4238 7.275881 16.734764 3.88342
463 155 1 0.4238 7.411577 4.720093 7.687554
464 155 2 -0.8476 6.596421 5.226137 7.789496
465 155 1 0.4238 6.082243 4.930936 7.028292
466 156 1 0.4238 5.894921 11.984354 17.543971
467 156 2 -0.8476 5.244962 11.356983 17.882959
468 156 1 0.4238 4.870433 11.841566 18.62852
469 157 1 0.4238 19.264641 19.25637 7.030262
470 157 2 -0.8476 18.615454 19.111573 6.331302
471 157 1 0.4238 17.875139 18.734691 6.822063
472 158 1 0.4238 19.273499 10.72688 7.724704
473 158 2 -0.8476 18.783243 9.913437 7.554665
474 158 1 0.4238 19.252598 9.278436 8.109133
475 159 1 0.4238 2.903762 1.016568 19.258184
476 159 2 -0.8476 2.164231 1.194763 18.66464
477 159 1 0.4238 1.406485 0.96549 19.216191
478 160 1 0.4238 14.826529 5.105401 3.493995
479 160 2 -0.8476 14.165961 5.013964 2.796684
480 160 1 0.4238 13.347888 5.205788 3.270935
481 161 1 0.4238 17.992759 10.61521 10.154802
482 161 2 -0.8476 18.355571 10.636632 11.048593
483 161 1 0.4238 19.262446 10.341339 10.902532
484 162 1 0.4238 1.024783 13.514727 11.166137
485 162 2 -0.8476 0.700323 14.370853 11.47065
486 162 1 0.4238 0.720978 14.262199 12.429149
487 163 1 0.4238 12.406371 13.610949 6.129614
488 163 2 -0.8476 12.414512 12.648589 6.060685
489 163 1 0.4238 11.97706 12.505966 5.2126
490 164 1 0.4238 4.13284 9.136361 15.245648
491 164 2 -0.8476 4.311589 9.967351 15.702219
492 164 1 0.4238 3.444635 10.185702 16.065079
493 165 1 0.4238 17.121179 18.293254 14.312754
494 165 2 -0.8476 17.607104 19.095986 14.088142
495 165 1 0.4238 17.290239 19.277262 13.195007
496 166 1 0.4238 6.629495 7.515916 6.268445
497 166 2 -0.8476 6.792676 8.186591 5.594263
498 166 1 0.4238 7.213843 8.886636 6.107593
499 167 1 0.4238 0.742802 10.107597 5.686385
500 167 2 -0.8476 1.041484 10.233388 4.777584
501 167 1 0.4238 0.742256 11.131737 4.592151
502 168 1 0.4238 8.910464 10.159257 19.241296
503 168 2 -0.8476 8.835419 9.197747 19.269933
504 168 1 0.4238 9.727432 8.921065 19.027624
505 169 1 0.4238 11.963754 8.154261 7.017906
506 169 2 -0.8476 11.566473 7.849774 7.842775
507 169 1 0.4238 11.365861 6.928274 7.638946
508 170 1 0.4238 3.492041 14.168692 3.729519
509 170 2 -0.8476 4.084555 14.867998 3.428105
510 170 1 0.4238 3.471396 15.597784 3.278432
511 171 1 0.4238 16.334797 9.138265 8.534031
512 171 2 -0.8476 15.431892 9.274491 8.222329
513 171 1 0.4238 15.299991 8.507082 7.652558
514 172 1 0.4238 17.100492 14.839937 18.309234
515 172 2 -0.8476 17.315391 14.979968 19.239375
516 172 1 0.4238 18.257488 15.184075 19.19757
517 173 1 0.4238 1.08726 12.72662 18.619089
518 173 2 -0.8476 1.232428 12.018228 19.257884
519 173 1 0.4238 2.194014 11.939011 19.252317
520 174 1 0.4238 2.851163 6.550697 13.268127
521 174 2 -0.8476 2.682483 5.609535 13.138844
522 174 1 0.4238 2.721242 5.530409 12.178016
523 175 1 0.4238 0.726155 16.804844 0.731431
524 175 2 -0.8476 1.35878 16.278455 1.235073
525 175 1 0.4238 2.144993 16.83733 1.21315
526 176 1 0.4238 7.961507 7.26778 12.104715
527 176 2 -0.8476 8.262044 7.563545 11.23687
528 176 1 0.4238 8.504148 8.480977 11.411963
529 177 1 0.4238 13.980253 16.63414 2.901436
530 177 2 -0.8476 13.692356 17.412147 3.394158
531 177 1 0.4238 13.871855 17.148788 4.304859
532 178 1 0.4238 10.341528 16.3344 6.014205
533 178 2 -0.8476 10.891141 17.069446 5.71657
534 178 1 0.4238 11.763237 16.808185 6.036172
535 179 1 0.4238 9.133031 8.978086 15.21559
536 179 2 -0.8476 8.539974 8.503605 14.620523
537 179 1 0.4238 8.696477 7.585748 14.873501
538 180 1 0.4238 15.634146 19.257571 4.393787
539 180 2 -0.8476 16.585043 19.096511 4.422217
540 180 1 0.4238 16.84284 19.264063 3.507657
541 181 1 0.4238 18.307061 18.907966 19.209749
542 181 2 -0.8476 19.250539 18.710926 19.254228
543 181 1 0.4238 19.25258 17.746072 19.256729
544 182 1 0.4238 4.928452 1.204809 5.443958
545 182 2 -0.8476 5.443969 0.742432 4.772092
546 182 1 0.4238 6.32355 0.731464 5.168539
547 183 1 0.4238 6.121974 13.939445 1.8335
548 183 2 -0.8476 6.564989 13.56779 2.605875
549 183 1 0.4238 7.254954 14.221144 2.773294
550 184 1 0.4238 9.083265 14.49328 14.00664
551 184 2 -0.8476 9.223302 13.556783 13.821396
552 184 1 0.4238 8.703714 13.432843 13.017891
553 185 1 0.4238 10.58327 18.845726 8.263348
554 185 2 -0.8476 11.499832 19.125789 8.151852
555 185 1 0.4238 11.544168 19.288592 7.201861
556 186 1 0.4238 6.344293 14.070005 19.278636
557 186 2 -0.8476 5.680731 14.468021 18.702249
558 186 1 0.4238 4.912049 14.511437 19.283796
559 187 1 0.4238 6.069194 8.718765 17.408275
560 187 2 -0.8476 6.665887 8.941392 16.683466
561 187 1 0.4238 7.221899 9.620278 17.084613
562 188 1 0.4238 8.07144 16.800312 7.493284
563 188 2 -0.8476 7.279089 16.268569 7.636053
564 188 1 0.4238 6.586515 16.847896 7.295942
565 189 1 0.4238 10.074835 19.293633 10.927705
566 189 2 -0.8476 10.718805 18.876035 11.5124
567 189 1 0.4238 11.34491 18.49924 10.882343
568 190 1 0.4238 17.291354 15.640003 8.708232
569 190 2 -0.8476 17.33143 16.598163 8.81442
570 190 1 0.4238 18.277803 16.746302 8.930115
571 191 1 0.4238 1.475866 3.831261 5.146756
572 191 2 -0.8476 1.770302 3.383548 5.949136
573 191 1 0.4238 2.729904 3.449825 5.873466
574 192 1 0.4238 15.649953 16.948146 0.739691
575 192 2 -0.8476 15.696826 15.986051 0.795638
576 192 1 0.4238 16.428105 15.85779 1.411863
577 193 1 0.4238 11.884109 19.251813 4.347002
578 193 2 -0.8476 11.231576 19.028611 3.672216
579 193 1 0.4238 10.403478 19.250819 4.114745
580 194 1 0.4238 16.002056 17.395154 19.270414
581 194 2 -0.8476 15.279792 16.92069 18.841261
582 194 1 0.4238 14.505076 17.325674 19.249618
583 195 1 0.4238 13.852049 7.796602 4.041398
584 195 2 -0.8476 13.08377 8.148286 4.507251
585 195 1 0.4238 12.36557 7.62661 4.129103
586 196 1 0.4238 6.566536 11.636634 4.734687
587 196 2 -0.8476 6.2383 11.07256 4.024029
588 196 1 0.4238 5.649059 10.474988 4.500113
589 197 1 0.4238 11.932883 5.555695 18.096678
590 197 2 -0.8476 12.356273 5.867476 18.905681
591 197 1 0.4238 12.727145 5.051759 19.263471
592 198 1 0.4238 17.758977 6.665394 19.226784
593 198 2 -0.8476 18.516062 6.587829 18.63369
594 198 1 0.4238 19.25358 6.55782 19.255076
595 199 1 0.4238 3.208063 8.08448 10.354964
596 199 2 -0.8476 2.526621 8.122144 11.036999
597 199 1 0.4238 1.812029 7.615296 10.632751
598 200 1 0.4238 14.868131 11.220214 14.005681
599 200 2 -0.8476 13.995654 11.518988 13.722006
600 200 1 0.4238 13.462332 11.351377 14.508408
601 201 1 0.4238 18.294815 0.769034 10.982143
602 201 2 -0.8476 17.602845 1.339997 10.626992
603 201 1 0.4238 17.125175 0.736011 10.045627
604 202 1 0.4238 4.562644 7.900324 4.011672
605 202 2 -0.8476 3.877806 8.514774 3.721151
606 202 1 0.4238 3.284391 8.52578 4.481868
607 203 1 0.4238 1.148626 10.99117 0.734294
608 203 2 -0.8476 0.733424 11.643719 1.311131
609 203 1 0.4238 0.724418 12.428534 0.749937
610 204 1 0.4238 17.610003 3.919571 19.23587
611 204 2 -0.8476 18.288474 3.283352 18.979248
612 204 1 0.4238 19.096001 3.726899 19.265813
613 205 1 0.4238 6.493804 13.455043 10.4895
614 205 2 -0.8476 7.32275 13.92572 10.638713
615 205 1 0.4238 7.652289 14.03883 9.738956
616 206 1 0.4238 19.263274 9.884217 16.32246
617 206 2 -0.8476 19.255747 8.923175 16.407873
618 206 1 0.4238 19.282533 8.641054 15.485569
619 207 1 0.4238 0.732745 6.446897 5.555005
620 207 2 -0.8476 0.954024 7.377937 5.431899
621 207 1 0.4238 0.726754 7.515693 4.504362
622 208 1 0.4238 12.720035 11.372041 2.730517
623 208 2 -0.8476 12.706831 10.583097 3.285807
624 208 1 0.4238 11.966083 10.089707 2.913234
625 209 1 0.4238 5.065798 17.136262 18.460341
626 209 2 -0.8476 5.500672 17.397409 19.281097
627 209 1 0.4238 6.402346 17.085874 19.136588
628 210 1 0.4238 0.746461 15.013072 3.598041
629 210 2 -0.8476 0.739942 14.15255 4.034405
630 210 1 0.4238 0.849496 13.550246 3.28863
631 211 1 0.4238 9.610074 0.738167 0.731078
632 211 2 -0.8476 8.863072 0.741078 1.34176
633 211 1 0.4238 8.11136 0.743889 0.736884
634 212 1 0.4238 6.08719 18.326282 12.03587
635 212 2 -0.8476 6.043903 19.272797 12.218051
636 212 1 0.4238 5.552391 19.293569 13.048074
637 213 1 0.4238 3.281013 3.102257 3.202362
638 213 2 -0.8476 3.932275 2.390973 3.172598
639 213 1 0.4238 3.380994 1.624366 2.974212
640 214 1 0.4238 10.844583 3.957327 7.828372
641 214 2 -0.8476 11.492434 4.042512 8.538291
642 214 1 0.4238 11.428384 3.182316 8.970626
643 215 1 0.4238 14.032399 0.697741 19.260845
644 215 2 -0.8476 13.339586 1.369184 19.272193
645 215 1 0.4238 13.853598 2.185729 19.272381
646 216 1 0.4238 5.769266 12.452971 12.945474
647 216 2 -0.8476 5.992422 13.251618 13.438747
648 216 1 0.4238 5.264793 13.305586 14.070093
649 217 1 0.4238 4.152728 10.657969 10.14034
650 217 2 -0.8476 4.545938 11.537389 10.194751
651 217 1 0.4238 4.016537 11.949698 10.888069
652 218 1 0.4238 8.904546 3.443517 5.763835
653 218 2 -0.8476 8.301702 3.550809 5.018167
654 218 1 0.4238 7.47211 3.2204 5.383626
655 219 1 0.4238 19.259349 4.654749 7.553352
656 219 2 -0.8476 19.056621 4.361861 6.656652
657 219 1 0.4238 18.092502 4.398734 6.648291
658 220 1 0.4238 8.743037 4.050121 18.363499
659 220 2 -0.8476 9.000066 4.225949 19.276721
660 220 1 0.4238 9.461841 5.069162 19.194815
661 221 1 0.4238 8.070134 7.439623 3.276537
662 221 2 -0.8476 8.292596 8.378234 3.298288
663 221 1 0.4238 7.470833 8.78469 2.997536
664 222 1 0.4238 12.412518 9.521299 10.041731