LAMMPS Description

  801 atoms
  2 atom types
  0.0 20.0 xlo xhi
  0.0 20.0 ylo yhi
  0.0 20.0 zlo zhi


Masses

1 1.008 # H
2 15.9994 # O

Atoms

1 1 0.4238 14.888558 9.823933 4.031338
2 2 -0.8476 15.846163 9.771627 4.137221
3 1 0.4238 16.150919 9.82772 3.223476
4 1 0.4238 18.750343 11.291023 18.013091
5 2 -0.8476 18.130345 11.227241 18.749629
6 1 0.4238 17.73168 12.105887 18.751016
7 1 0.4238 13.607152 5.548984 12.877549
8 2 -0.8476 13.707422 5.999976 12.030492
9 1 0.4238 13.272597 6.844129 12.201619
10 1 0.4238 3.566909 4.282197 1.906451
11 2 -0.8476 2.981868 3.615119 2.285513
12 1 0.4238 2.334073 3.494675 1.580667
13 1 0.4238 3.729004 18.753442 1.249313
14 2 -0.8476 3.77572 18.693646 2.211183
15 1 0.4238 4.725989 18.750603 2.36834
16 1 0.4238 18.320627 14.170861 7.005832
17 2 -0.8476 18.040579 14.431463 7.891616
18 1 0.4238 18.754003 15.022998 8.160067
19 1 0.4238 6.720199 12.369318 15.759711
20 2 -0.8476 7.395969 11.797761 15.375509
21 1 0.4238 8.129292 11.914462 15.991602
22 1 0.4238 12.60258 16.434046 15.723788
23 2 -0.8476 11.806465 16.321327 15.19045
24 1 0.4238 11.162563 16.038621 15.851072
25 1 0.4238 5.088873 18.750648 7.583298
26 2 -0.8476 5.819994 18.685187 8.209501
27 1 0.4238 6.582324 18.63054 7.620585
28 1 0.4238 12.739867 1.249895 9.318023
29 2 -0.8476 12.44871 1.642134 10.150086
30 1 0.4238 13.063064 1.248633 10.781496
31 1 0.4238 2.476886 18.53153 5.472066
32 2 -0.8476 1.606471 18.750294 5.826287
33 1 0.4238 1.249815 17.877542 6.031357
34 1 0.4238 14.324333 10.711748 1.763691
35 2 -0.8476 13.430374 10.731457 2.126187
36 1 0.4238 12.992688 10.040436 1.614449
37 1 0.4238 5.519774 18.750419 17.807893
38 2 -0.8476 5.327618 18.674107 18.75034
39 1 0.4238 4.368368 18.570223 18.750233
40 1 0.4238 1.249685 13.390075 16.579223
41 2 -0.8476 1.318237 12.516988 16.174287
42 1 0.4238 1.504869 11.957425 16.937839
43 1 0.4238 10.883989 2.805678 1.715226
44 2 -0.8476 11.200841 2.022989 1.24837
45 1 0.4238 10.57052 1.351179 1.535284
46 1 0.4238 16.251186 1.249801 6.734269
47 2 -0.8476 15.419068 1.737403 6.706376
48 1 0.4238 14.924552 1.249266 6.036951
49 1 0.4238 1.248499 1.249657 7.291317
50 2 -0.8476 1.339361 1.425654 6.347006
51 1 0.4238 2.276774 1.249916 6.200967
52 1 0.4238 6.229879 11.053626 1.250142
53 2 -0.8476 5.559146 10.430348 1.554437
54 1 0.4238 5.926917 9.585926 1.266948
55 1 0.4238 10.857403 5.838757 16.413592
56 2 -0.8476 10.376455 5.985119 15.59005
57 1 0.4238 9.512718 5.60647 15.793854
58 1 0.4238 1.249801 10.305487 10.019588
59 2 -0.8476 2.136078 10.683758 10.068349
60 1 0.4238 2.443912 10.587709 9.158972
61 1 0.4238 3.410368 6.149371 12.788235
62 2 -0.8476 2.98522 5.914357 11.954586
63 1 0.4238 3.540216 5.187999 11.645819
64 1 0.4238 7.813826 18.191601 16.986304
65 2 -0.8476 8.035765 17.312704 17.316814
66 1 0.4238 8.853655 17.121981 16.841805
67 1 0.4238 4.646249 7.343805 9.723244
68 2 -0.8476 3.978336 7.347104 9.026943
69 1 0.4238 3.281091 6.806297 9.417238
70 1 0.4238 16.986496 7.508021 16.302343
71 2 -0.8476 16.240106 8.085164 16.504237
72 1 0.4238 16.415227 8.323279 17.422708
73 1 0.4238 11.8555 3.925794 15.151149
74 2 -0.8476 11.380164 4.067671 14.323574
75 1 0.4238 10.581737 3.543432 14.460107
76 1 0.4238 8.39082 10.446792 9.163683
77 2 -0.8476 9.138589 11.014378 8.940881
78 1 0.4238 9.343566 11.417451 9.793213
79 1 0.4238 2.596128 14.164715 14.568788
80 2 -0.8476 1.717123 14.009053 14.202628
81 1 0.4238 1.249245 14.812891 14.459316
82 1 0.4238 2.193229 14.079783 5.699453
83 2 -0.8476 2.190852 14.782681 6.360424
84 1 0.4238 3.129688 14.994268 6.429501
85 1 0.4238 18.515798 13.857546 3.781861
86 2 -0.8476 18.599791 12.942993 4.077652
87 1 0.4238 18.027646 12.931592 4.854488
88 1 0.4238 9.528335 17.893576 3.045726
89 2 -0.8476 9.273488 18.752391 2.687337
90 1 0.4238 9.634688 18.710363 1.793624
91 1 0.4238 1.273125 1.253865 12.23457
92 2 -0.8476 1.25 1.25 11.269996
93 1 0.4238 1.278693 2.192681 11.066322
94 1 0.4238 18.506772 2.484624 5.895559
95 2 -0.8476 18.597221 1.529025 5.797561
96 1 0.4238 18.750907 1.24912 6.708049
97 1 0.4238 10.187346 11.527633 3.461998
98 2 -0.8476 9.400262 11.025951 3.70647
99 1 0.4238 9.632084 10.708651 4.587681
100 1 0.4238 5.996196 3.284309 3.196746
101 2 -0.8476 6.271364 3.118729 4.106592
102 1 0.4238 7.146432 2.731617 3.982684
103 1 0.4238 9.068009 13.759119 1.251873
104 2 -0.8476 8.415685 13.048195 1.248187
105 1 0.4238 8.96557 12.272501 1.412137
106 1 0.4238 3.514972 15.06329 1.251489
107 2 -0.8476 3.374643 16.005461 1.405032
108 1 0.4238 4.278633 16.327956 1.503784
109 1 0.4238 1.24999 6.221569 16.078299
110 2 -0.8476 1.362984 7.120585 15.746702
111 1 0.4238 1.249593 7.644483 16.548965
112 1 0.4238 13.322901 12.511192 11.20095
113 2 -0.8476 12.65963 11.86926 10.919971
114 1 0.4238 12.019092 11.9166 11.639988
115 1 0.4238 17.795403 3.802379 11.306828
116 2 -0.8476 18.680883 3.595246 11.629277
117 1 0.4238 18.636356 3.900437 12.543514
118 1 0.4238 7.898454 1.250012 16.525311
119 2 -0.8476 8.82463 1.317997 16.263531
120 1 0.4238 9.277211 1.249223 17.11288
121 1 0.4238 8.140861 18.601258 5.001187
122 2 -0.8476 7.187183 18.546348 5.13697
123 1 0.4238 6.848638 18.750162 4.256742
124 1 0.4238 14.24181 4.814852 4.945768
125 2 -0.8476 14.460909 4.114302 4.319527
126 1 0.4238 15.162783 4.524254 3.799656
127 1 0.4238 16.907712 5.947146 2.713154
128 2 -0.8476 16.762844 6.699544 2.126755
129 1 0.4238 16.601235 7.413609 2.755204
130 1 0.4238 10.206928 2.817912 4.41771
131 2 -0.8476 9.8787 2.082223 3.886691
132 1 0.4238 10.556767 1.411884 4.034422
133 1 0.4238 14.968337 16.161529 8.153785
134 2 -0.8476 15.034116 15.534912 7.423048
135 1 0.4238 14.649256 16.037242 6.694693
136 1 0.4238 1.248394 3.997726 17.220367
137 2 -0.8476 1.515813 3.308186 16.60071
138 1 0.4238 1.252644 3.688449 15.753895
139 1 0.4238 1.764473 18.679086 8.341115
140 2 -0.8476 2.686481 18.431592 8.201108
141 1 0.4238 3.077217 18.623767 9.062124
142 1 0.4238 13.498551 7.616701 1.26984
143 2 -0.8476 14.444866 7.4295 1.249923
144 1 0.4238 14.823454 8.316982 1.248639
145 1 0.4238 11.353583 16.03129 4.400529
146 2 -0.8476 11.769839 15.369191 4.965603
147 1 0.4238 12.053198 14.708171 4.322397
148 1 0.4238 15.077975 14.993076 10.360958
149 2 -0.8476 14.983863 14.193556 9.82911
150 1 0.4238 14.059743 14.243518 9.556236
151 1 0.4238 10.292723 13.548071 10.805452
152 2 -0.8476 10.836571 13.409616 10.020587
153 1 0.4238 10.457575 14.044864 9.401091
154 1 0.4238 4.749923 5.049388 8.415094
155 2 -0.8476 3.904555 4.586175 8.373365
156 1 0.4238 3.758084 4.355305 9.298675
157 1 0.4238 1.260029 1.249412 15.20597
158 2 -0.8476 1.960214 1.571494 14.625489
159 1 0.4238 2.753103 1.256332 15.075993
160 1 0.4238 6.016993 13.728747 1.428893
161 2 -0.8476 6.091758 14.627711 1.771279
162 1 0.4238 6.826657 14.977661 1.253195
163 1 0.4238 12.314601 13.000685 1.893812
164 2 -0.8476 11.387961 12.822403 1.692544
165 1 0.4238 11.441339 11.966605 1.25015
166 1 0.4238 15.669657 16.932752 1.648253
167 2 -0.8476 15.318511 17.627068 2.218846
168 1 0.4238 14.899971 18.216952 1.580242
169 1 0.4238 18.045608 7.951186 12.451061
170 2 -0.8476 17.994561 8.486126 13.252427
171 1 0.4238 18.508992 9.264191 13.00559
172 1 0.4238 15.968542 11.096753 10.204742
173 2 -0.8476 15.229454 10.748601 9.691427
174 1 0.4238 14.832491 11.555382 9.341459
175 1 0.4238 11.066085 15.261387 1.248219
176 2 -0.8476 10.820449 16.156467 1.51175
177 1 0.4238 9.892733 16.193833 1.249263
178 1 0.4238 3.369871 10.204235 6.695796
179 2 -0.8476 4.300847 9.953461 6.732541
180 1 0.4238 4.587701 10.372367 7.55302
181 1 0.4238 9.145652 5.443657 4.794881
182 2 -0.8476 8.461717 4.78842 4.978867
183 1 0.4238 7.719345 5.125101 4.462646
184 1 0.4238 13.960014 14.422609 16.33223
185 2 -0.8476 14.347905 13.59781 16.015686
186 1 0.4238 15.235792 13.638307 16.391147
187 1 0.4238 18.557102 2.79677 15.237813
188 2 -0.8476 18.697038 2.327906 16.0694
189 1 0.4238 18.748473 1.410618 15.774628
190 1 0.4238 16.490953 16.582556 13.708048
191 2 -0.8476 16.357292 16.156814 12.852576
192 1 0.4238 15.90102 16.846782 12.355874
193 1 0.4238 10.297236 13.415935 6.986652
194 2 -0.8476 10.184899 12.460253 6.915899
195 1 0.4238 9.268294 12.388602 6.62323
196 1 0.4238 15.366767 7.520799 13.450112
197 2 -0.8476 15.542077 8.223896 12.813029
198 1 0.4238 15.599262 7.732388 11.984716
199 1 0.4238 4.466487 16.540636 8.57212
200 2 -0.8476 5.28916 16.350767 9.039146
201 1 0.4238 5.899454 16.188627 8.309622
202 1 0.4238 4.659884 3.422705 18.751154
203 2 -0.8476 3.91165 3.46734 18.143612
204 1 0.4238 3.163794 3.511721 18.751638
205 1 0.4238 8.462574 6.401261 2.220585
206 2 -0.8476 7.871633 6.807619 1.575127
207 1 0.4238 7.491691 7.534696 2.083021
208 1 0.4238 17.932374 1.381446 10.593487
209 2 -0.8476 18.750603 1.485102 10.092777
210 1 0.4238 18.452179 1.327859 9.188802
211 1 0.4238 7.608326 17.352022 1.248397
212 2 -0.8476 6.757621 17.807163 1.258431
213 1 0.4238 7.027424 18.733518 1.263594
214 1 0.4238 18.751347 2.275099 3.41661
215 2 -0.8476 18.706279 1.320358 3.284731
216 1 0.4238 18.751084 1.249759 2.323501
217 1 0.4238 11.522693 10.853924 15.68308
218 2 -0.8476 11.92923 10.676632 16.539963
219 1 0.4238 12.544595 11.414905 16.625007
220 1 0.4238 3.499902 5.983399 3.741506
221 2 -0.8476 3.3235 5.171155 4.2315
222 1 0.4238 4.200149 4.770478 4.275065
223 1 0.4238 14.514054 17.869207 14.5363
224 2 -0.8476 14.838021 18.735953 14.262895
225 1 0.4238 14.603388 18.750163 13.327107
226 1 0.4238 14.221967 9.079597 18.354015
227 2 -0.8476 13.291272 9.321323 18.274461
228 1 0.4238 13.277272 10.196178 18.681139
229 1 0.4238 16.955813 12.198964 8.189722
230 2 -0.8476 16.473833 12.468419 7.398493
231 1 0.4238 15.894216 13.158253 7.743641
232 1 0.4238 11.608606 8.355516 15.668616
233 2 -0.8476 11.184415 8.255321 14.807816
234 1 0.4238 10.257716 8.416928 15.022446
235 1 0.4238 7.514343 13.095707 8.258167
236 2 -0.8476 6.979434 12.640367 7.596736
237 1 0.4238 6.646697 11.884513 8.095659
238 1 0.4238 14.718349 1.288365 14.117662
239 2 -0.8476 14.824643 1.896927 13.376509
240 1 0.4238 14.989333 1.291352 12.643631
241 1 0.4238 6.681542 1.504589 11.417245
242 2 -0.8476 7.570644 1.249928 11.142293
243 1 0.4238 7.496576 1.275101 10.18061
244 1 0.4238 7.852408 3.850408 18.462431
245 2 -0.8476 7.204202 3.141282 18.55144
246 1 0.4238 7.765557 2.382142 18.750291
247 1 0.4238 17.330625 4.054487 8.046831
248 2 -0.8476 17.912347 3.776716 8.764742
249 1 0.4238 18.75017 3.648185 8.303779
250 1 0.4238 7.079616 3.59001 16.093005
251 2 -0.8476 7.324284 3.873939 15.203917
252 1 0.4238 8.160997 3.412313 15.070631
253 1 0.4238 4.49169 12.502416 18.230482
254 2 -0.8476 3.815516 12.951269 18.75228
255 1 0.4238 3.258255 13.337747 18.06595
256 1 0.4238 1.315041 16.166127 8.24952
257 2 -0.8476 1.309733 15.417177 8.857796
258 1 0.4238 2.242163 15.169902 8.877366
259 1 0.4238 12.783354 3.517785 8.267244
260 2 -0.8476 13.722456 3.731689 8.209918
261 1 0.4238 13.891255 3.635637 7.264807
262 1 0.4238 14.356656 6.718312 15.591514
263 2 -0.8476 13.451658 6.686085 15.924521
264 1 0.4238 12.976609 6.309168 15.174045
265 1 0.4238 18.750185 6.329429 6.763933
266 2 -0.8476 18.343191 6.791683 7.506651
267 1 0.4238 18.539162 7.713356 7.299121
268 1 0.4238 11.051065 4.901198 6.971339
269 2 -0.8476 10.375543 4.351701 7.386883
270 1 0.4238 10.340428 3.594114 6.790408
271 1 0.4238 2.120212 16.328933 16.814143
272 2 -0.8476 1.28497 16.267225 17.293221
273 1 0.4238 1.46336 15.549474 17.912869
274 1 0.4238 12.024143 4.430182 3.828609
275 2 -0.8476 11.701754 5.334354 3.731179
276 1 0.4238 11.634607 5.62191 4.649741
277 1 0.4238 12.692305 15.270922 18.50311
278 2 -0.8476 12.401263 16.138818 18.198143
279 1 0.4238 12.926985 16.730434 18.750013
280 1 0.4238 16.929111 5.72342 12.651845
281 2 -0.8476 16.067206 5.318256 12.497196
282 1 0.4238 15.95132 4.786437 13.293871
283 1 0.4238 1.845037 18.750409 11.233643
284 2 -0.8476 1.249791 18.177293 10.735473
285 1 0.4238 1.7323 17.341746 10.734473
286 1 0.4238 12.386923 18.17192 12.325872
287 2 -0.8476 12.141729 17.680514 13.11919
288 1 0.4238 12.178083 18.36599 13.797243
289 1 0.4238 3.695262 8.134599 16.381589
290 2 -0.8476 3.997694 7.219504 16.427304
291 1 0.4238 3.844285 6.913753 15.52512
292 1 0.4238 18.750235 9.450188 1.249636
293 2 -0.8476 18.14311 8.700286 1.249561
294 1 0.4238 18.751314 7.951643 1.273551
295 1 0.4238 18.506477 1.471078 13.118214
296 2 -0.8476 17.570709 1.695237 13.047186
297 1 0.4238 17.20007 1.249601 13.81854
298 1 0.4238 15.930155 10.764849 17.652931
299 2 -0.8476 15.220874 11.403476 17.511403
300 1 0.4238 15.268627 11.935467 18.314933
301 1 0.4238 13.412726 1.325419 2.180521
302 2 -0.8476 12.849607 1.247992 2.960172
303 1 0.4238 12.890963 2.140217 3.325107
304 1 0.4238 15.233813 9.312698 7.150604
305 2 -0.8476 14.278758 9.415327 7.241662
306 1 0.4238 14.073652 8.769497 7.928531
307 1 0.4238 10.10978 6.87963 11.519252
308 2 -0.8476 10.802247 7.214299 12.101867
309 1 0.4238 10.672008 6.678984 12.893971
310 1 0.4238 16.442276 2.488736 4.484535
311 2 -0.8476 16.312635 1.856488 3.767312
312 1 0.4238 15.35449 1.876018 3.655373
313 1 0.4238 16.295808 11.325259 15.093954
314 2 -0.8476 16.091944 10.386793 15.187086
315 1 0.4238 16.356371 10.039219 14.326723
316 1 0.4238 11.237882 4.680158 11.146184
317 2 -0.8476 11.101847 3.922323 10.56469
318 1 0.4238 10.829587 3.238739 11.188822
319 1 0.4238 7.519693 3.779808 12.02617
320 2 -0.8476 8.416186 3.529141 11.772358
321 1 0.4238 8.39114 3.642831 10.814548
322 1 0.4238 1.401193 6.445584 18.748185
323 2 -0.8476 2.296206 6.793388 18.653646
324 1 0.4238 2.821931 5.984885 18.623801
325 1 0.4238 6.448635 8.493703 8.358196
326 2 -0.8476 5.935009 8.078985 7.654526
327 1 0.4238 6.222351 7.159792 7.713457
328 1 0.4238 3.72944 4.070668 15.724383
329 2 -0.8476 3.913338 3.696111 14.854416
330 1 0.4238 4.865042 3.544066 14.900181
331 1 0.4238 16.449838 14.773465 5.460895
332 2 -0.8476 15.913232 15.125106 4.740231
333 1 0.4238 16.559723 15.642024 4.244449
334 1 0.4238 4.172869 14.915727 16.357372
335 2 -0.8476 4.78684 14.710403 15.641945
336 1 0.4238 5.614745 14.582333 16.120615
337 1 0.4238 8.995026 2.372976 8.507447
338 2 -0.8476 9.621052 2.169297 9.212826
339 1 0.4238 10.431857 2.001921 8.717312
340 1 0.4238 6.042274 8.15288 18.695847
341 2 -0.8476 5.224421 8.504985 18.32424
342 1 0.4238 4.557971 7.952758 18.75067
343 1 0.4238 3.125069 1.996832 8.764307
344 2 -0.8476 2.805405 1.252353 9.288254
345 1 0.4238 3.424166 1.24959 10.028578
346 1 0.4238 8.679889 7.36992 8.267135
347 2 -0.8476 9.001234 6.461554 8.216522
348 1 0.4238 8.673131 6.182047 7.353285
349 1 0.4238 3.653541 6.220253 6.498012
350 2 -0.8476 3.133079 6.892209 6.041342
351 1 0.4238 3.290157 7.671471 6.58818
352 1 0.4238 4.745647 2.17787 1.2496
353 2 -0.8476 4.484592 1.248997 1.24939
354 1 0.4238 3.535712 1.308773 1.413729
355 1 0.4238 1.259991 5.191563 10.232041
356 2 -0.8476 1.272511 5.060449 9.276214
357 1 0.4238 1.273134 4.09806 9.207205
358 1 0.4238 9.485337 8.791081 1.24887
359 2 -0.8476 9.374283 9.747175 1.315987
360 1 0.4238 8.413562 9.836424 1.31792
361 1 0.4238 3.880275 15.331366 10.853956
362 2 -0.8476 4.592235 15.375133 11.503687
363 1 0.4238 4.110196 15.580937 12.313771
364 1 0.4238 16.192781 3.233053 1.504598
365 2 -0.8476 15.79546 2.391641 1.249421
366 1 0.4238 16.557888 1.800399 1.258816
367 1 0.4238 18.750095 14.127629 17.690289
368 2 -0.8476 18.749982 13.807246 16.780174
369 1 0.4238 17.841567 13.498608 16.677806
370 1 0.4238 18.685801 3.51998 1.249861
371 2 -0.8476 18.643934 4.257424 1.870649
372 1 0.4238 18.749222 5.016961 1.285011
373 1 0.4238 3.043981 8.00411 2.201607
374 2 -0.8476 2.986108 8.247006 1.269617
375 1 0.4238 3.479792 9.075737 1.248773
376 1 0.4238 18.749838 18.718401 8.972792
377 2 -0.8476 18.561651 18.730502 8.02654
378 1 0.4238 17.597054 18.750129 8.01556
379 1 0.4238 15.48496 13.248536 12.234116
380 2 -0.8476 15.156889 12.62732 12.895489
381 1 0.4238 15.258406 13.132721 13.711097
382 1 0.4238 18.746155 18.322984 12.983312
383 2 -0.8476 18.749625 17.714948 12.234157
384 1 0.4238 18.75072 16.85642 12.674477
385 1 0.4238 11.593252 11.424515 8.702991
386 2 -0.8476 12.502063 11.611571 8.438367
387 1 0.4238 12.484416 12.570069 8.329169
388 1 0.4238 1.377487 1.250094 3.846419
389 2 -0.8476 1.249801 2.028707 3.29107
390 1 0.4238 1.316213 2.74501 3.934074
391 1 0.4238 8.216913 10.121242 6.562932
392 2 -0.8476 7.543792 10.449867 5.954765
393 1 0.4238 6.755535 9.98451 6.259802
394 1 0.4238 12.216792 1.249942 14.138968
395 2 -0.8476 12.396825 1.253816 13.191061
396 1 0.4238 12.354861 2.19531 12.984226
397 1 0.4238 15.991836 18.750272 17.813315
398 2 -0.8476 15.769228 18.691501 18.750302
399 1 0.4238 15.054071 18.043833 18.744846
400 1 0.4238 15.507343 4.612938 16.293353
401 2 -0.8476 14.660799 4.154821 16.360036
402 1 0.4238 14.32626 4.222203 15.457541
403 1 0.4238 8.977172 14.82459 15.863834
404 2 -0.8476 8.110359 14.430486 16.019625
405 1 0.4238 7.970767 14.619847 16.955365
406 1 0.4238 12.010433 7.227899 18.750462
407 2 -0.8476 11.470823 7.622111 18.054494
408 1 0.4238 10.895586 8.210876 18.557895
409 1 0.4238 10.006069 1.249998 12.460254
410 2 -0.8476 9.472504 1.708224 13.120778
411 1 0.4238 9.725348 1.251948 13.932464
412 1 0.4238 7.320693 9.790213 17.032198
413 2 -0.8476 6.5789 10.365676 17.25477
414 1 0.4238 5.937785 10.137748 16.570684
415 1 0.4238 5.253836 1.894786 16.738292
416 2 -0.8476 4.914807 1.296471 17.415072
417 1 0.4238 5.658087 1.247864 18.028363
418 1 0.4238 10.457235 5.224585 1.249947
419 2 -0.8476 11.224692 5.804815 1.322715
420 1 0.4238 10.821594 6.678357 1.249298
421 1 0.4238 12.163486 13.817212 13.874422
422 2 -0.8476 11.856112 14.019267 12.982431
423 1 0.4238 11.093532 14.583815 13.157674
424 1 0.4238 10.022264 3.632126 17.240184
425 2 -0.8476 10.763417 3.284481 17.75086
426 1 0.4238 10.40857 3.293196 18.648057
427 1 0.4238 6.50377 16.810649 15.36573
428 2 -0.8476 5.91967 17.570403 15.477776
429 1 0.4238 5.152738 17.170619 15.905494
430 1 0.4238 8.378419 15.082035 10.323537
431 2 -0.8476 7.498252 14.931817 9.957895
432 1 0.4238 6.932974 15.337077 10.62661
433 1 0.4238 16.205318 2.24768 15.883442
434 2 -0.8476 16.281718 1.436001 16.399478
435 1 0.4238 15.490433 1.474924 16.950211
436 1 0.4238 4.964338 3.144267 12.434467
437 2 -0.8476 4.42259 2.521872 11.93438
438 1 0.4238 3.759993 2.265377 12.587166
439 1 0.4238 9.396076 14.583884 4.968597
440 2 -0.8476 9.710423 13.758167 4.580871
441 1 0.4238 9.758658 13.983743 3.643992
442 1 0.4238 12.048097 18.321408 1.27598
443 2 -0.8476 12.496857 18.752384 2.013427
444 1 0.4238 11.932413 18.511817 2.758063
445 1 0.4238 1.251238 8.742309 7.966706
446 2 -0.8476 1.249392 7.993033 8.5746
447 1 0.4238 1.249192 7.243574 7.966928
448 1 0.4238 2.196041 12.625142 7.732119
449 2 -0.8476 1.341127 13.028511 7.925427
450 1 0.4238 1.250127 12.858911 8.870894
451 1 0.4238 11.58779 13.724353 16.698459
452 2 -0.8476 11.020721 13.307727 16.0383
453 1 0.4238 10.359558 12.87237 16.589917
454 1 0.4238 6.138116 5.673464 18.392435
455 2 -0.8476 5.286273 5.702811 17.940267
456 1 0.4238 5.459829 5.171405 17.153858
457 1 0.4238 1.879837 6.005308 1.249683
458 2 -0.8476 1.247161 6.288762 1.920747
459 1 0.4238 1.252534 5.539499 2.528636
460 1 0.4238 6.757911 16.403664 3.399522
461 2 -0.8476 7.64032 16.425616 3.78917
462 1 0.4238 8.128891 15.828756 3.209505
463 1 0.4238 6.517827 4.688684 6.684684
464 2 -0.8476 6.268998 3.760671 6.596204
465 1 0.4238 5.34743 3.827212 6.318287
466 1 0.4238 3.254827 11.072211 15.376494
467 2 -0.8476 4.100147 11.49921 15.561049
468 1 0.4238 3.822529 12.384858 15.824696
469 1 0.4238 17.342986 18.749869 4.379015
470 2 -0.8476 18.18812 18.750306 4.844529
471 1 0.4238 18.750533 18.255123 4.236714
472 1 0.4238 18.732757 11.114442 6.80542
473 2 -0.8476 18.510767 10.177624 6.86902
474 1 0.4238 17.547701 10.196953 6.813487
475 1 0.4238 2.391447 1.313863 17.844543
476 2 -0.8476 2.061867 1.262456 18.749909
477 1 0.4238 1.287565 1.836947 18.712897
478 1 0.4238 13.554577 5.223302 2.017917
479 2 -0.8476 13.697423 4.657819 1.249296
480 1 0.4238 13.758844 3.78393 1.653645
481 1 0.4238 18.750095 11.03931 10.215753
482 2 -0.8476 18.707706 10.79094 9.284373
483 1 0.4238 18.750102 9.828233 9.332859
484 1 0.4238 1.274259 13.795355 11.594463
485 2 -0.8476 1.29402 14.69702 11.251589
486 1 0.4238 1.662039 15.185772 11.997671
487 1 0.4238 11.893486 11.640787 5.285712
488 2 -0.8476 12.265828 10.94773 4.727154
489 1 0.4238 12.501385 10.273869 5.37629
490 1 0.4238 5.689225 8.571526 13.431775
491 2 -0.8476 4.920685 8.590139 14.01483
492 1 0.4238 4.838681 9.532263 14.206222
493 1 0.4238 15.852044 18.662441 9.803573
494 2 -0.8476 16.038587 18.754142 10.745776
495 1 0.4238 17.003008 18.729459 10.761175
496 1 0.4238 5.408367 7.576189 5.263844
497 2 -0.8476 5.643178 6.67681 5.005125
498 1 0.4238 5.87168 6.790488 4.074632
499 1 0.4238 1.248842 10.930031 5.589387
500 2 -0.8476 1.556327 11.727573 5.141799
501 1 0.4238 1.249176 11.580301 4.239068
502 1 0.4238 9.49264 10.535871 18.665963
503 2 -0.8476 10.445873 10.662908 18.744455
504 1 0.4238 10.518758 11.624993 18.750252
505 1 0.4238 10.482033 9.342694 7.301809
506 2 -0.8476 11.058611 8.781398 6.769401
507 1 0.4238 11.648831 8.411864 7.437263
508 1 0.4238 3.685749 14.849578 3.789274
509 2 -0.8476 4.265946 14.288132 4.317577
510 1 0.4238 5.138488 14.626122 4.082235
511 1 0.4238 16.606673 8.67307 9.89904
512 2 -0.8476 15.921488 8.13272 9.487341
513 1 0.4238 16.390113 7.758924 8.731285
514 1 0.4238 16.565169 14.742819 18.736848
515 2 -0.8476 16.103962 15.590302 18.740655
516 1 0.4238 15.17958 15.313935 18.750208
517 1 0.4238 1.316786 9.448786 18.726061
518 2 -0.8476 1.995458 9.763699 18.116808
519 1 0.4238 2.747302 9.895408 18.707008
520 1 0.4238 1.317142 5.169834 13.741182
521 2 -0.8476 1.249263 4.492826 13.057073
522 1 0.4238 2.037628 3.961977 13.223309
523 1 0.4238 1.277077 18.751911 2.163258
524 2 -0.8476 1.247835 18.448148 1.247929
525 1 0.4238 1.252276 17.489375 1.356042
526 1 0.4238 2.410238 11.955891 12.956181
527 2 -0.8476 1.471979 11.780514 13.097132
528 1 0.4238 1.262896 11.204475 12.351869
529 1 0.4238 16.876719 17.131849 6.226845
530 2 -0.8476 17.592243 16.650209 6.659282
531 1 0.4238 18.200381 16.496467 5.926147
532 1 0.4238 11.297449 16.14513 7.294623
533 2 -0.8476 11.696847 15.776932 8.092034
534 1 0.4238 12.485538 15.347196 7.739546
535 1 0.4238 8.420601 5.816228 13.554945
536 2 -0.8476 8.098267 6.498661 12.953829
537 1 0.4238 7.854608 7.203943 13.565517
538 1 0.4238 14.941772 17.497482 4.686765
539 2 -0.8476 14.57635 18.368083 4.488082
540 1 0.4238 14.48521 18.751527 5.368773
541 1 0.4238 18.750049 17.015392 18.750174
542 2 -0.8476 18.142249 17.750038 18.602433
543 1 0.4238 18.748972 18.473951 18.40548
544 1 0.4238 4.719875 1.277914 6.729171
545 2 -0.8476 5.520754 1.336376 6.194261
546 1 0.4238 6.212511 1.249632 6.861271
547 1 0.4238 5.690841 12.259356 3.49599
548 2 -0.8476 6.510568 12.54285 3.918641
549 1 0.4238 7.172791 12.269099 3.272519
550 1 0.4238 9.717556 12.300207 12.893943
551 2 -0.8476 10.034115 12.412085 13.798502
552 1 0.4238 9.397124 13.042548 14.155872
553 1 0.4238 10.418778 18.650355 8.182098
554 2 -0.8476 10.921872 18.105739 8.799547
555 1 0.4238 11.182841 18.751262 9.467491
556 1 0.4238 6.983134 12.704822 18.22303
557 2 -0.8476 7.669032 12.245056 18.722142
558 1 0.4238 8.371729 12.905658 18.749981
559 1 0.4238 6.393136 7.782633 15.866511
560 2 -0.8476 6.79102 7.188512 16.514324
561 1 0.4238 7.189222 6.515498 15.949133
562 1 0.4238 8.871064 15.449402 7.301046
563 2 -0.8476 8.81425 16.405402 7.418473
564 1 0.4238 8.803534 16.717881 6.505678
565 1 0.4238 8.041641 17.559111 10.338431
566 2 -0.8476 8.311309 17.786783 9.440434
567 1 0.4238 8.272069 18.750665 9.459048
568 1 0.4238 17.536717 16.028037 10.652212
569 2 -0.8476 17.952218 16.559108 9.962084
570 1 0.4238 17.239283 16.640514 9.317065
571 1 0.4238 2.67854 3.717025 6.160178
572 2 -0.8476 1.902259 3.85514 6.716295
573 1 0.4238 1.250989 4.165533 6.075625
574 1 0.4238 13.291808 16.200688 1.890625
575 2 -0.8476 13.296094 16.300464 2.850302
576 1 0.4238 14.002962 15.6973 3.11008
577 1 0.4238 10.557842 18.164757 5.467521
578 2 -0.8476 11.250315 18.733033 5.825986
579 1 0.4238 11.99914 18.517635 5.256936
580 1 0.4238 15.102787 16.626811 16.62414
581 2 -0.8476 15.98712 16.782655 16.271121
582 1 0.4238 16.294609 15.884171 16.100442
583 1 0.4238 14.063506 7.4851 3.719923
584 2 -0.8476 13.579696 7.183481 4.498324
585 1 0.4238 13.474728 8.002585 4.997327
586 1 0.4238 7.238984 9.782716 3.524133
587 2 -0.8476 6.505605 9.177702 3.688655
588 1 0.4238 5.804061 9.783411 3.956807
589 1 0.4238 13.835365 5.475569 18.750169
590 2 -0.8476 13.18557 5.107993 18.138933
591 1 0.4238 12.514338 4.767725 18.74277
592 1 0.4238 18.7502 8.753942 18.361388
593 2 -0.8476 18.492797 7.909196 18.750106
594 1 0.4238 18.750153 7.2858 18.060106
595 1 0.4238 3.357649 9.67725 12.192976
596 2 -0.8476 3.347863 8.719536 12.076172
597 1 0.4238 3.060461 8.633682 11.159121
598 1 0.4238 13.149799 11.514969 13.887513
599 2 -0.8476 13.841494 11.227963 14.495903
600 1 0.4238 13.676503 10.27895 14.551629
601 1 0.4238 15.478204 1.248701 10.135886
602 2 -0.8476 15.476609 1.38602 9.180849
603 1 0.4238 16.016198 2.181062 9.093065
604 1 0.4238 3.494571 8.97071 4.462463
605 2 -0.8476 2.74001 9.501631 4.180129
606 1 0.4238 3.147555 10.107243 3.549181
607 1 0.4238 1.248746 10.05276 1.812229
608 2 -0.8476 1.618859 10.745041 1.251233
609 1 0.4238 1.248329 11.54251 1.648353
610 1 0.4238 16.313977 3.022178 18.750003
611 2 -0.8476 15.64014 3.69978 18.616759
612 1 0.4238 14.826721 3.182419 18.657246
613 1 0.4238 7.678451 14.290535 12.837355
614 2 -0.8476 7.125782 15.036209 13.100948
615 1 0.4238 6.622796 14.66186 13.834311
616 1 0.4238 18.749884 9.113132 15.55132
617 2 -0.8476 18.508981 9.980751 15.897956
618 1 0.4238 18.682537 10.55295 15.140711
619 1 0.4238 18.750326 2.494509 18.563232
620 2 -0.8476 18.736302 1.548057 18.750277
621 1 0.4238 17.993017 1.249718 18.212248
622 1 0.4238 11.425502 7.809718 3.395222
623 2 -0.8476 11.376424 8.676064 3.817109
624 1 0.4238 11.128658 9.243993 3.077499
625 1 0.4238 6.082577 16.293137 18.648285
626 2 -0.8476 6.335987 15.363299 18.694513
627 1 0.4238 5.485001 14.919747 18.594315
628 1 0.4238 1.249579 13.937928 2.998917
629 2 -0.8476 1.281322 14.593657 2.291834
630 1 0.4238 1.248804 14.038238 1.503541
631 1 0.4238 7.066791 1.249372 1.249128
632 2 -0.8476 8.030084 1.267157 1.30112
633 1 0.4238 8.178443 1.24914 2.254335
634 1 0.4238 6.43594 17.277096 12.233521
635 2 -0.8476 5.848444 17.43335 12.982779
636 1 0.4238 5.941996 18.384627 13.114205
637 1 0.4238 3.751726 2.311215 4.294498
638 2 -0.8476 3.840617 1.351325 4.253711
639 1 0.4238 4.653071 1.248057 3.743607
640 1 0.4238 13.279324 6.032524 6.905252
641 2 -0.8476 14.124132 6.498201 6.885294
642 1 0.4238 14.638417 6.005745 7.53641
643 1 0.4238 13.316836 1.249712 18.172709
644 2 -0.8476 12.682619 1.883879 18.528454
645 1 0.4238 11.935296 1.315216 18.750002
646 1 0.4238 6.461028 12.91096 11.001975
647 2 -0.8476 7.27987 12.516205 10.678526
648 1 0.4238 7.65672 12.148614 11.487114
649 1 0.4238 5.67917 9.938088 11.3034
650 2 -0.8476 6.224034 9.664382 10.555629
651 1 0.4238 7.043606 9.401888 10.991924
652 1 0.4238 9.529765 1.249795 6.307889
653 2 -0.8476 8.650283 1.284458 5.912587
654 1 0.4238 8.390884 2.197903 6.083715
655 1 0.4238 18.750244 4.735829 4.837715
656 2 -0.8476 17.830824 4.578988 4.59069
657 1 0.4238 17.378935 4.667437 5.438585
658 1 0.4238 8.551668 6.210469 18.025562
659 2 -0.8476 8.68837 6.847624 18.737109
660 1 0.4238 8.465751 7.680598 18.30404
661 1 0.4238 1.312744 18.659858 13.674552
662 2 -0.8476 1.320978 17.721311 13.450913
663 1 0.4238 1.24996 17.308807 14.320253
664 1 0.4238 9.389093 7.909353 5.125637
665 2 -0.8476 8.612638 7.87548 4.553865
666 1 0.4238 7.902444 7.730915 5.190794
667 1 0.4238 10.907257 8.535504 9.821493
668 2 -0.8476 11.654788 8.802638 10.369937
669 1 0.4238 12.229713 9.234278 9.726429
670 1 0.4238 8.400097 18.750576 12.844416
671 2 -0.8476 9.149557 18.750035 12.236746
672 1 0.4238 9.898833 18.74998 12.844644
673 1 0.4238 18.397249 4.698001 17.278019
674 2 -0.8476 17.727793 4.917077 17.937404
675 1 0.4238 18.247491 4.936136 18.750118
676 1 0.4238 3.803909 12.580198 1.248354
677 2 -0.8476 3.676636 12.009249 2.01567
678 1 0.4238 3.358466 12.634216 2.678345
679 1 0.4238 4.163092 17.816144 11.176438
680 2 -0.8476 4.405136 18.75015 11.176453
681 1 0.4238 5.200961 18.749654 10.630912
682 1 0.4238 17.58787 15.329939 1.987256
683 2 -0.8476 18.146454 16.116654 1.991244
684 1 0.4238 18.750728 15.935553 1.261169
685 1 0.4238 14.989179 3.403147 11.30567
686 2 -0.8476 14.313015 3.407332 10.617384
687 1 0.4238 13.529904 3.682659 11.109203
688 1 0.4238 15.935968 6.691989 5.173854
689 2 -0.8476 16.547463 7.104712 5.795697
690 1 0.4238 17.193272 7.507205 5.2025
691 1 0.4238 1.308084 18.71797 16.800005
692 2 -0.8476 2.059246 18.750315 16.195304
693 1 0.4238 2.806691 18.736929 16.805305
694 1 0.4238 18.773538 18.435149 1.297817
695 2 -0.8476 18.029202 18.643592 1.875285
696 1 0.4238 17.313973 18.770661 1.240261
697 1 0.4238 17.395258 11.636036 12.230207
698 2 -0.8476 17.775468 11.702478 13.114503
699 1 0.4238 18.719536 11.753871 12.922026
700 1 0.4238 13.914434 12.561443 3.763912
701 2 -0.8476 14.50055 13.327111 3.729648
702 1 0.4238 15.37008 12.910722 3.691041
703 1 0.4238 14.74159 11.506696 5.874074
704 2 -0.8476 14.14417 11.817916 6.564861
705 1 0.4238 13.933421 12.708582 6.259489
706 1 0.4238 15.354197 14.485548 1.24776
707 2 -0.8476 14.488539 14.059573 1.259428
708 1 0.4238 14.726505 13.124587 1.248146
709 1 0.4238 5.149956 6.770411 1.660862
710 2 -0.8476 5.35031 5.921371 1.248622
711 1 0.4238 5.791314 5.450703 1.966216
712 1 0.4238 17.971688 5.198312 14.86484
713 2 -0.8476 18.532182 5.943004 15.11431
714 1 0.4238 18.750408 6.324526 14.255374
715 1 0.4238 18.750015 5.891026 9.802868
716 2 -0.8476 18.71281 6.599331 10.456988
717 1 0.4238 18.750213 7.386586 9.900405
718 1 0.4238 18.750231 16.272214 16.363222
719 2 -0.8476 18.582227 17.185369 16.100779
720 1 0.4238 18.468915 17.100642 15.146349
721 1 0.4238 5.823374 5.521369 12.608057
722 2 -0.8476 5.968515 5.329549 13.542451