LAMMPS Description

  1006 atoms
  4 atom types
  0.0 12.28 xlo xhi
  0.0 12.762 ylo yhi
  0.0 93.392 zlo zhi


Masses

1 1.008 # H
2 15.999 # O
3 22.99 # Na
4 12.011 # C

Atoms

1 1 0.0 7.294151 2.74108 8.904459
2 2 0.0 7.17517 2.041457 9.55816
3 1 0.0 7.188792 1.249577 9.007076
4 1 0.0 11.032076 5.148942 11.061763
5 2 0.0 10.981164 4.853212 10.144754
6 1 0.0 10.032404 4.895232 9.974336
7 1 0.0 1.250713 6.043268 10.700503
8 2 0.0 1.242557 5.285548 10.10322
9 1 0.0 1.253602 4.544678 10.721236
10 1 0.0 1.387496 11.515106 6.28195
11 2 0.0 1.242462 11.216406 7.187873
12 1 0.0 1.63103 10.333408 7.171046
13 1 0.0 5.830328 7.172274 11.623239
14 2 0.0 6.417226 6.413694 11.728405
15 1 0.0 6.689721 6.245042 10.818319
16 1 0.0 3.61959 7.235787 3.868059
17 2 0.0 3.706068 6.795842 4.722415
18 1 0.0 3.329583 5.92683 4.537939
19 1 0.0 11.032535 9.777224 10.452113
20 2 0.0 11.034594 8.822433 10.591121
21 1 0.0 10.838817 8.757993 11.533709
22 1 0.0 4.051616 11.513461 5.013133
23 2 0.0 4.079882 11.115473 5.891632
24 1 0.0 4.875354 11.513752 6.265198
25 1 0.0 10.611396 11.077207 5.817365
26 2 0.0 11.054312 10.22114 5.77346
27 1 0.0 11.004026 10.018981 4.831358
28 1 0.0 3.361134 8.675527 12.493776
29 2 0.0 3.458015 7.837046 12.961233
30 1 0.0 3.16801 7.202698 12.29456
31 1 0.0 4.304274 3.357935 4.634948
32 2 0.0 3.725406 2.64632 4.335832
33 1 0.0 3.205878 2.4657 5.128562
34 1 0.0 8.376487 2.951081 6.386353
35 2 0.0 8.7379 2.20278 5.896068
36 1 0.0 8.919433 1.570943 6.602313
37 1 0.0 2.329551 6.886755 7.099837
38 2 0.0 1.662105 7.302732 6.54088
39 1 0.0 1.205377 6.536808 6.172485
40 1 0.0 1.249186 9.307954 4.649739
41 2 0.0 1.435565 9.634792 3.761261
42 1 0.0 2.397514 9.708606 3.773936
43 1 0.0 4.040512 4.68688 2.18922
44 2 0.0 4.368775 3.818698 1.925673
45 1 0.0 3.754113 3.578652 1.22174
46 1 0.0 6.166634 4.600372 6.337161
47 2 0.0 5.34235 4.635383 6.837445
48 1 0.0 5.661523 4.627659 7.747951
49 1 0.0 8.874642 11.469679 10.654158
50 2 0.0 8.711516 11.524122 11.603568
51 1 0.0 8.833636 10.607658 11.879495
52 1 0.0 4.49868 3.265853 12.19747
53 2 0.0 4.402345 2.305918 12.183373
54 1 0.0 4.234538 2.136316 11.248477
55 1 0.0 4.178526 5.954397 9.736766
56 2 0.0 3.976471 5.267304 10.383319
57 1 0.0 3.859982 4.4923 9.82051
58 1 0.0 7.034111 10.986256 7.992741
59 2 0.0 7.87157 11.102963 7.527989
60 1 0.0 7.588403 11.533991 6.712523
61 1 0.0 8.744624 8.85862 2.356132
62 2 0.0 8.185983 8.568028 1.625085
63 1 0.0 7.900127 9.408294 1.246675
64 1 0.0 4.303198 10.555568 9.624527
65 2 0.0 3.984358 10.665523 8.720534
66 1 0.0 3.529242 11.514755 8.771789
67 1 0.0 7.998703 5.909071 8.423408
68 2 0.0 8.422067 5.312706 7.794071
69 1 0.0 8.507542 5.87425 7.014124
70 1 0.0 6.370888 9.089983 3.90126
71 2 0.0 5.979831 9.569982 4.64128
72 1 0.0 5.458726 8.881624 5.072053
73 1 0.0 7.573178 11.542263 3.579216
74 2 0.0 8.324015 11.504969 2.974397
75 1 0.0 9.071824 11.526404 3.583721
76 1 0.0 11.030047 1.250028 4.70436
77 2 0.0 10.758071 1.807128 3.96502
78 1 0.0 10.083181 1.262057 3.542675
79 1 0.0 6.2793 1.405699 4.957842
80 2 0.0 5.648152 1.188873 5.654687
81 1 0.0 6.186134 1.290163 6.449211
82 1 0.0 11.029787 7.156069 4.990405
83 2 0.0 10.465674 6.385548 4.852461
84 1 0.0 11.039424 5.809036 4.333426
85 1 0.0 1.661226 1.796151 2.730438
86 2 0.0 2.369173 1.216411 2.424387
87 1 0.0 2.273635 1.274239 1.466012
88 1 0.0 2.442519 11.515461 1.701923
89 2 0.0 1.479493 11.52127 1.761094
90 1 0.0 1.243526 10.741175 1.244639
91 1 0.0 4.994745 7.484473 7.394775
92 2 0.0 5.143764 8.36732 7.754397
93 1 0.0 5.400676 8.171277 8.663527
94 1 0.0 7.733378 1.246404 2.107046
95 2 0.0 7.294005 1.250089 1.24804
96 1 0.0 6.528312 1.811911 1.418403
97 1 0.0 1.559358 1.247045 7.622518
98 2 0.0 1.234407 1.682756 8.419711
99 1 0.0 1.751845 1.248808 9.108841
100 1 0.0 6.266482 6.002746 1.254347
101 2 0.0 7.131856 5.580598 1.192118
102 1 0.0 6.901277 4.645124 1.243859
103 1 0.0 1.372937 8.859294 9.477996
104 2 0.0 2.090382 8.574811 10.057044
105 1 0.0 2.760595 8.295893 9.421456
106 1 0.0 10.924953 8.446214 7.86947
107 2 0.0 11.037002 7.49113 7.790643
108 1 0.0 10.445024 7.16371 8.478619
109 1 0.0 6.127789 11.513663 1.24108
110 2 0.0 5.173688 11.496393 1.383723
111 1 0.0 5.115918 11.515113 2.346669
112 1 0.0 9.935479 1.246064 9.136813
113 2 0.0 10.885773 1.378762 9.03539
114 1 0.0 11.036192 2.16325 9.576598
115 1 0.0 7.665378 8.49948 6.667376
116 2 0.0 8.590351 8.635393 6.428824
117 1 0.0 8.513587 9.17917 5.635497
118 1 0.0 4.462602 1.246783 8.647667
119 2 0.0 4.626702 2.189965 8.527528
120 1 0.0 4.051399 2.398776 7.78162
121 1 0.0 7.764124 6.778138 4.525776
122 2 0.0 7.218897 6.477602 3.788648
123 1 0.0 6.365069 6.338892 4.216071
124 1 0.0 1.232954 7.19583 2.507128
125 2 0.0 1.772287 7.340109 1.720199
126 1 0.0 1.24946 7.991441 1.237112
127 1 0.0 6.090493 10.699845 11.709468
128 2 0.0 5.279043 10.627634 12.226467
129 1 0.0 4.903486 11.511382 12.132118
130 1 0.0 11.060619 3.318139 6.855688
131 2 0.0 10.904392 3.992232 7.528105
132 1 0.0 11.041364 4.80667 7.029223
133 1 0.0 11.031593 2.444316 1.248084
134 2 0.0 10.528683 3.189291 1.598864
135 1 0.0 11.030916 3.942944 1.266114
136 1 0.0 7.186117 3.704941 11.747715
137 2 0.0 7.963612 3.491823 12.277844
138 1 0.0 8.593592 3.210599 11.603313
139 1 0.0 1.526482 11.51478 10.732047
140 2 0.0 1.893842 10.94492 11.418531
141 1 0.0 1.841392 11.512092 12.197324
142 1 0.0 8.87297 4.156401 3.965193
143 2 0.0 8.41443 3.626894 3.301629
144 1 0.0 7.536308 3.5364 3.691073
145 1 0.0 8.646724 9.111357 9.258361
146 2 0.0 8.185509 8.361554 9.653369
147 1 0.0 7.561245 8.800365 10.243871
148 1 0.0 3.850472 9.089995 1.241024
149 2 0.0 4.559157 8.849566 1.85005
150 1 0.0 5.269443 8.607578 1.243511
151 1 0.0 11.031031 7.318602 2.03544
152 2 0.0 10.673759 6.834904 1.280889
153 1 0.0 9.894719 6.414439 1.664634
154 1 0.0 11.033262 11.451391 1.237577
155 2 0.0 11.040519 10.70536 1.84941
156 1 0.0 11.033276 9.952677 1.245779
157 3 0.0 1.270639 4.273476 17.418871
158 3 0.0 1.277752 9.144642 17.323284
159 2 0.0 1.588077 3.897965 6.829321
160 1 0.0 1.94505 4.227193 7.664387
161 2 0.0 1.299931 4.466331 2.181741
162 1 0.0 1.240012 4.688776 1.243613
163 4 0.0 0.614 0.709014 20.0
164 4 0.0 0.614 0.709014 26.695999
165 4 0.0 0.614 4.963014 20.0
166 4 0.0 0.614 4.963014 26.695999
167 4 0.0 0.614 9.217015 20.0
168 4 0.0 0.614 9.217015 26.695999
169 4 0.0 3.07 0.709014 20.0
170 4 0.0 3.07 0.709014 26.695999
171 4 0.0 3.07 4.963014 20.0
172 4 0.0 3.07 4.963014 26.695999
173 4 0.0 3.07 9.217015 20.0
174 4 0.0 3.07 9.217015 26.695999
175 4 0.0 5.526 0.709014 20.0
176 4 0.0 5.526 0.709014 26.695999
177 4 0.0 5.526 4.963014 20.0
178 4 0.0 5.526 9.217015 20.0
179 4 0.0 5.526 9.217015 26.695999
180 4 0.0 7.982 0.709014 20.0
181 4 0.0 7.982 0.709014 26.695999
182 4 0.0 7.982 4.963014 20.0
183 4 0.0 7.982 4.963014 26.695999
184 4 0.0 7.982 9.217015 20.0
185 4 0.0 7.982 9.217015 26.695999
186 4 0.0 10.438 0.709014 20.0
187 4 0.0 10.438 0.709014 26.695999
188 4 0.0 10.438 4.963014 20.0
189 4 0.0 10.438 4.963014 26.695999
190 4 0.0 10.438 9.217015 20.0
191 4 0.0 10.438 9.217015 26.695999
192 4 0.0 0.614 3.544986 20.0
193 4 0.0 0.614 3.544986 26.695999
194 4 0.0 0.614 7.798986 20.0
195 4 0.0 0.614 7.798986 26.695999
196 4 0.0 0.614 12.052986 20.0
197 4 0.0 0.614 12.052986 26.695999
198 4 0.0 3.07 3.544986 20.0
199 4 0.0 3.07 3.544986 26.695999
200 4 0.0 3.07 7.798986 20.0
201 4 0.0 3.07 7.798986 26.695999
202 4 0.0 3.07 12.052986 20.0
203 4 0.0 3.07 12.052986 26.695999
204 4 0.0 5.526 3.544986 20.0
205 4 0.0 5.526 3.544986 26.695999
206 4 0.0 5.526 7.798986 20.0
207 4 0.0 5.526 7.798986 26.695999
208 4 0.0 5.526 12.052986 20.0
209 4 0.0 5.526 12.052986 26.695999
210 4 0.0 7.982 3.544986 20.0
211 4 0.0 7.982 3.544986 26.695999
212 4 0.0 7.982 7.798986 20.0
213 4 0.0 7.982 7.798986 26.695999
214 4 0.0 7.982 12.052986 20.0
215 4 0.0 7.982 12.052986 26.695999
216 4 0.0 10.438 3.544986 20.0
217 4 0.0 10.438 3.544986 26.695999
218 4 0.0 10.438 7.798986 20.0
219 4 0.0 10.438 7.798986 26.695999
220 4 0.0 10.438 12.052986 20.0
221 4 0.0 10.438 12.052986 26.695999
222 4 0.0 0.614 2.836014 23.348
223 4 0.0 0.614 7.090014 23.348
224 4 0.0 0.614 11.344015 23.348
225 4 0.0 3.07 2.836014 23.348
226 4 0.0 3.07 7.090014 23.348
227 4 0.0 3.07 11.344015 23.348
228 4 0.0 5.526 2.836014 23.348
229 4 0.0 5.526 7.090014 23.348
230 4 0.0 5.526 11.344015 23.348
231 4 0.0 7.982 2.836014 23.348
232 4 0.0 7.982 7.090014 23.348
233 4 0.0 7.982 11.344015 23.348
234 4 0.0 10.438 2.836014 23.348
235 4 0.0 10.438 7.090014 23.348
236 4 0.0 10.438 11.344015 23.348
237 4 0.0 0.614 1.417986 23.348
238 4 0.0 0.614 5.671986 23.348
239 4 0.0 0.614 9.925986 23.348
240 4 0.0 3.07 1.417986 23.348
241 4 0.0 3.07 5.671986 23.348
242 4 0.0 3.07 9.925986 23.348
243 4 0.0 5.526 1.417986 23.348
244 4 0.0 5.526 5.671986 23.348
245 4 0.0 5.526 9.925986 23.348
246 4 0.0 7.982 1.417986 23.348
247 4 0.0 7.982 5.671986 23.348
248 4 0.0 7.982 9.925986 23.348
249 4 0.0 10.438 1.417986 23.348
250 4 0.0 10.438 5.671986 23.348
251 4 0.0 10.438 9.925986 23.348
252 4 0.0 1.842 0.709014 23.348
253 4 0.0 1.842 4.963014 23.348
254 4 0.0 1.842 9.217015 23.348
255 4 0.0 4.298 0.709014 23.348
256 4 0.0 4.298 4.963014 23.348
257 4 0.0 4.298 9.217015 23.348
258 4 0.0 6.754 0.709014 23.348
259 4 0.0 6.754 4.963014 23.348
260 4 0.0 6.754 9.217015 23.348
261 4 0.0 9.21 0.709014 23.348
262 4 0.0 9.21 4.963014 23.348
263 4 0.0 9.21 9.217015 23.348
264 4 0.0 11.666 0.709014 23.348
265 4 0.0 11.666 4.963014 23.348
266 4 0.0 11.666 9.217015 23.348
267 4 0.0 1.842 3.544986 23.348
268 4 0.0 1.842 7.798986 23.348
269 4 0.0 1.842 12.052986 23.348
270 4 0.0 4.298 3.544986 23.348
271 4 0.0 4.298 7.798986 23.348
272 4 0.0 4.298 12.052986 23.348
273 4 0.0 6.754 3.544986 23.348
274 4 0.0 6.754 7.798986 23.348
275 4 0.0 6.754 12.052986 23.348
276 4 0.0 9.21 3.544986 23.348
277 4 0.0 9.21 7.798986 23.348
278 4 0.0 9.21 12.052986 23.348
279 4 0.0 11.666 3.544986 23.348
280 4 0.0 11.666 7.798986 23.348
281 4 0.0 11.666 12.052986 23.348
282 4 0.0 1.842 2.836014 20.0
283 4 0.0 1.842 2.836014 26.695999
284 4 0.0 1.842 7.090014 20.0
285 4 0.0 1.842 7.090014 26.695999
286 4 0.0 1.842 11.344015 20.0
287 4 0.0 1.842 11.344015 26.695999
288 4 0.0 4.298 2.836014 20.0
289 4 0.0 4.298 2.836014 26.695999
290 4 0.0 4.298 7.090014 20.0
291 4 0.0 4.298 7.090014 26.695999
292 4 0.0 4.298 11.344015 20.0
293 4 0.0 4.298 11.344015 26.695999
294 4 0.0 6.754 2.836014 20.0
295 4 0.0 6.754 2.836014 26.695999
296 4 0.0 6.754 7.090014 20.0
297 4 0.0 6.754 7.090014 26.695999
298 4 0.0 6.754 11.344015 20.0
299 4 0.0 6.754 11.344015 26.695999
300 4 0.0 9.21 2.836014 20.0
301 4 0.0 9.21 2.836014 26.695999
302 4 0.0 9.21 7.090014 20.0
303 4 0.0 9.21 7.090014 26.695999
304 4 0.0 9.21 11.344015 20.0
305 4 0.0 9.21 11.344015 26.695999
306 4 0.0 11.666 2.836014 20.0
307 4 0.0 11.666 2.836014 26.695999
308 4 0.0 11.666 7.090014 20.0
309 4 0.0 11.666 7.090014 26.695999
310 4 0.0 11.666 11.344015 20.0
311 4 0.0 11.666 11.344015 26.695999
312 4 0.0 1.842 1.417986 20.0
313 4 0.0 1.842 1.417986 26.695999
314 4 0.0 1.842 5.671986 20.0
315 4 0.0 1.842 5.671986 26.695999
316 4 0.0 1.842 9.925986 20.0
317 4 0.0 1.842 9.925986 26.695999
318 4 0.0 4.298 1.417986 20.0
319 4 0.0 4.298 1.417986 26.695999
320 4 0.0 4.298 5.671986 20.0
321 4 0.0 4.298 5.671986 26.695999
322 4 0.0 4.298 9.925986 20.0
323 4 0.0 4.298 9.925986 26.695999
324 4 0.0 6.754 1.417986 20.0
325 4 0.0 6.754 1.417986 26.695999
326 4 0.0 6.754 5.671986 20.0
327 4 0.0 6.754 5.671986 26.695999
328 4 0.0 6.754 9.925986 20.0
329 4 0.0 6.754 9.925986 26.695999
330 4 0.0 9.21 1.417986 20.0
331 4 0.0 9.21 1.417986 26.695999
332 4 0.0 9.21 5.671986 20.0
333 4 0.0 9.21 5.671986 26.695999
334 4 0.0 9.21 9.925986 26.695999
335 4 0.0 11.666 1.417986 20.0
336 4 0.0 11.666 1.417986 26.695999
337 4 0.0 11.666 5.671986 20.0
338 4 0.0 11.666 5.671986 26.695999
339 4 0.0 11.666 9.925986 20.0
340 4 0.0 11.666 9.925986 26.695999
341 1 0.0 8.545038 6.69719 48.219646
342 2 0.0 7.758779 6.867281 47.686897
343 1 0.0 7.217425 6.091692 47.877556
344 1 0.0 7.515346 3.722977 50.698547
345 2 0.0 6.603184 4.014171 50.817375
346 1 0.0 6.527245 4.708009 50.151211
347 1 0.0 9.340777 1.247235 36.710949
348 2 0.0 10.290432 1.25031 36.540363
349 1 0.0 10.607296 1.890007 37.189468
350 1 0.0 10.848487 6.087732 57.794949
351 2 0.0 10.04093 6.284801 58.284813
352 1 0.0 9.388809 6.3482 57.576527
353 1 0.0 7.541376 2.015296 53.08213
354 2 0.0 7.352616 1.385299 53.788124
355 1 0.0 6.404136 1.244387 53.680958
356 1 0.0 5.28305 1.641447 56.593159
357 2 0.0 5.309605 1.24268 57.471359
358 1 0.0 4.377568 1.248133 57.720821
359 1 0.0 3.89179 4.178795 48.500488
360 2 0.0 4.085813 3.707316 49.319641
361 1 0.0 3.806915 4.34537 49.987518
362 1 0.0 2.860177 8.331445 58.026443
363 2 0.0 2.02838 8.525361 58.475292
364 1 0.0 2.331133 8.997037 59.26067
365 1 0.0 6.1884 3.670863 47.076756
366 2 0.0 6.391734 3.052091 47.788605
367 1 0.0 6.57051 2.239072 47.300762
368 1 0.0 2.793068 1.370429 48.344242
369 2 0.0 2.181347 1.314707 49.088318
370 1 0.0 1.334757 1.193868 48.641506
371 1 0.0 5.423466 4.111453 42.523254
372 2 0.0 4.700493 3.811524 41.959068
373 1 0.0 4.005913 3.631655 42.604176
374 1 0.0 2.310149 5.70925 42.034283
375 2 0.0 3.113859 6.238952 41.967812
376 1 0.0 3.396209 6.288912 42.88908
377 1 0.0 1.232823 2.523357 46.237015
378 2 0.0 1.248035 1.942332 45.466862
379 1 0.0 1.818168 1.22523 45.769627
380 1 0.0 8.838291 1.240924 49.241611
381 2 0.0 9.165203 1.238483 48.333824
382 1 0.0 10.120891 1.246623 48.466293
383 1 0.0 3.419405 10.556119 48.329891
384 2 0.0 3.009897 10.714755 47.470772
385 1 0.0 2.566523 11.559581 47.614445
386 1 0.0 9.608159 10.791191 49.748207
387 2 0.0 8.910897 11.170379 50.296837
388 1 0.0 8.318856 11.546817 49.634464
389 1 0.0 11.048219 7.771144 51.590878
390 2 0.0 10.698609 8.170564 50.785156
391 1 0.0 9.76237 7.943992 50.840595
392 1 0.0 11.054211 11.528709 55.672321
393 2 0.0 11.023731 11.267715 54.743931
394 1 0.0 10.100614 11.436698 54.51976
395 1 0.0 8.395781 6.731412 43.388706
396 2 0.0 8.943053 7.363881 43.869781
397 1 0.0 8.88543 8.145553 43.307091
398 1 0.0 4.590013 5.357648 39.687939
399 2 0.0 5.483423 5.013011 39.569622
400 1 0.0 5.979727 5.516675 40.226097
401 1 0.0 8.62516 1.241446 56.221607
402 2 0.0 8.00179 1.414627 56.937408
403 1 0.0 8.544201 1.24966 57.718136
404 1 0.0 1.498768 11.52339 43.644367
405 2 0.0 1.229789 10.916635 44.344688
406 1 0.0 1.380247 11.447119 45.136459
407 1 0.0 6.552818 3.667134 55.097492
408 2 0.0 5.65565 3.998022 55.22617
409 1 0.0 5.519485 4.520509 54.426533
410 1 0.0 5.626556 1.22276 41.980183
411 2 0.0 6.361161 1.249604 42.605152
412 1 0.0 7.101404 1.484108 42.03244
413 1 0.0 8.739137 7.623233 60.343899
414 2 0.0 9.433809 8.264497 60.151115
415 1 0.0 8.926423 9.01185 59.812038
416 1 0.0 4.75322 10.268479 56.929291
417 2 0.0 4.967202 11.146984 57.266033
418 1 0.0 5.488474 11.515969 56.542789
419 1 0.0 4.732641 10.071374 54.187328
420 2 0.0 4.721905 10.728837 53.481224
421 1 0.0 4.527188 11.539503 53.966881
422 1 0.0 3.8851 1.425971 52.192394
423 2 0.0 3.952685 2.339242 51.88855
424 1 0.0 4.364631 2.771339 52.646538
425 1 0.0 1.246907 1.972512 51.58942
426 2 0.0 1.253386 2.143229 52.539036
427 1 0.0 1.234169 1.249523 52.90218
428 1 0.0 1.23232 3.895013 49.135456
429 2 0.0 1.236825 4.815495 48.846241
430 1 0.0 1.266866 4.722499 47.886341
431 1 0.0 2.113997 9.396681 42.013786
432 2 0.0 1.53006 8.764096 42.449459
433 1 0.0 1.230421 8.225611 41.707027
434 1 0.0 4.952434 8.937384 60.34124
435 2 0.0 5.100994 9.128086 59.407154
436 1 0.0 5.858553 9.724511 59.443695
437 1 0.0 1.28977 4.810757 44.711891
438 2 0.0 2.133696 4.417531 44.458679
439 1 0.0 2.709458 4.700475 45.179371
440 1 0.0 10.898212 9.061291 38.610416
441 2 0.0 11.029928 9.865582 38.093967
442 1 0.0 10.122346 10.123697 37.892406
443 1 0.0 11.024404 6.608778 41.318687
444 2 0.0 11.09564 7.413311 41.846519
445 1 0.0 10.939856 8.09924 41.186073
446 1 0.0 11.034675 4.73647 49.962173
447 2 0.0 10.651695 5.591457 49.731354
448 1 0.0 11.047359 5.760272 48.867699
449 1 0.0 1.25005 7.562751 48.918251
450 2 0.0 1.207672 8.427518 49.344086
451 1 0.0 1.154244 9.020847 48.585102
452 1 0.0 9.055368 6.060482 36.841568
453 2 0.0 8.125164 5.974913 37.083126
454 1 0.0 7.806891 6.879119 36.973278
455 1 0.0 4.538386 6.099284 60.232918
456 2 0.0 3.759234 6.372671 59.733784
457 1 0.0 3.049303 5.930424 60.214794
458 1 0.0 7.378887 10.584275 54.730911
459 2 0.0 7.352475 11.52561 54.520809
460 1 0.0 7.355452 11.514482 53.556019
461 1 0.0 5.284277 8.618169 42.131573
462 2 0.0 5.391165 7.761787 41.700134
463 1 0.0 5.906919 7.272965 42.352821
464 1 0.0 1.248156 5.75753 39.498932
465 2 0.0 1.695642 5.301349 38.776016
466 1 0.0 1.249128 5.667269 38.002914
467 1 0.0 11.028134 5.011364 45.597092
468 2 0.0 10.210048 5.304653 45.177959
469 1 0.0 10.321 4.980371 44.276028
470 1 0.0 1.254982 8.385172 38.434265
471 2 0.0 1.983717 8.370573 39.066475
472 1 0.0 2.683426 7.94768 38.554104
473 1 0.0 11.041611 4.624484 53.148647
474 2 0.0 10.578145 3.94575 53.654091
475 1 0.0 11.01099 4.007586 54.514191
476 1 0.0 1.248359 2.46057 57.841106
477 2 0.0 1.890615 2.13874 58.485226
478 1 0.0 1.437482 2.308196 59.320038
479 1 0.0 3.614918 8.925086 51.727798
480 2 0.0 3.526574 8.700185 50.793686
481 1 0.0 4.417105 8.869265 50.463051
482 1 0.0 9.243736 9.121545 34.132645
483 2 0.0 8.539575 8.541988 34.447643
484 1 0.0 9.025539 7.736461 34.66193
485 1 0.0 6.069035 9.422081 39.615887
486 2 0.0 6.84411 8.847731 39.634155
487 1 0.0 7.313212 9.120844 38.836468
488 1 0.0 7.836924 3.546148 59.41539
489 2 0.0 7.637973 4.364917 58.945293
490 1 0.0 7.954848 5.03268 59.565483
491 1 0.0 7.989292 11.310259 35.366081
492 2 0.0 8.67399 11.514226 36.014572
493 1 0.0 9.470516 11.513668 35.470055
494 1 0.0 4.111953 1.41967 44.26585
495 2 0.0 4.797732 1.72928 44.869839
496 1 0.0 4.566591 1.269594 45.686058
497 1 0.0 6.242033 8.216216 55.544163
498 2 0.0 6.666605 7.928273 54.726982
499 1 0.0 6.086664 7.211285 54.443169
500 1 0.0 4.052375 11.512566 42.629055
501 2 0.0 3.876912 11.51054 41.680286
502 1 0.0 4.745109 11.296797 41.317654
503 1 0.0 5.75192 11.580021 46.91037
504 2 0.0 5.613179 10.932162 46.208958
505 1 0.0 5.588626 10.104527 46.704304
506 1 0.0 10.195445 10.171872 44.624645
507 2 0.0 10.47779 10.537673 43.777637
508 1 0.0 11.048613 9.837515 43.438679
509 1 0.0 1.447936 2.89086 41.918938
510 2 0.0 1.229417 3.182141 41.025429
511 1 0.0 2.103723 3.32436 40.642918
512 1 0.0 6.539263 11.524141 37.747738
513 2 0.0 5.748126 11.493381 37.196274
514 1 0.0 5.044491 11.513565 37.856155
515 1 0.0 8.188103 3.125462 34.904709
516 2 0.0 8.499017 3.64356 35.656944
517 1 0.0 9.445634 3.703264 35.480011
518 1 0.0 3.800562 5.4437 37.001534
519 2 0.0 4.504804 5.380005 36.345074
520 1 0.0 5.193908 4.916839 36.836567
521 1 0.0 2.372176 4.534155 53.341648
522 2 0.0 2.20882 5.27155 53.942081
523 1 0.0 1.244711 5.292932 53.973545
524 1 0.0 8.481516 10.501218 41.099628
525 2 0.0 8.285319 11.439849 41.206551
526 1 0.0 7.431603 11.516578 40.763565
527 1 0.0 10.848733 1.241717 45.814404
528 2 0.0 11.036507 2.187535 45.780903
529 1 0.0 10.974002 2.369613 44.835442
530 1 0.0 2.599312 6.442053 34.383469
531 2 0.0 2.040838 5.879803 34.933865
532 1 0.0 2.343511 4.997137 34.688419
533 1 0.0 3.129476 7.844377 54.209282
534 2 0.0 2.210827 8.033002 54.436127
535 1 0.0 2.29223 8.361536 55.339668
536 1 0.0 1.339003 8.721187 33.501022
537 2 0.0 1.643693 9.102944 34.333115
538 1 0.0 2.592783 9.183867 34.179382
539 1 0.0 5.57167 11.534118 49.732201
540 2 0.0 5.194449 11.494417 50.619377
541 1 0.0 5.984683 11.511391 51.172726
542 1 0.0 1.939635 2.401803 37.852776
543 2 0.0 2.502784 3.052036 37.415722
544 1 0.0 2.618781 2.659738 36.541882
545 1 0.0 8.504842 1.249976 44.376541
546 2 0.0 8.025606 1.834187 44.976528
547 1 0.0 7.987212 2.653486 44.468369
548 1 0.0 5.615885 6.73761 51.777843
549 2 0.0 4.743385 6.368748 51.59444
550 1 0.0 4.437809 6.131173 52.478256
551 1 0.0 4.93365 7.653029 47.761822
552 2 0.0 4.553855 6.774475 47.88369
553 1 0.0 3.904193 6.933085 48.579201
554 1 0.0 4.484338 2.451045 39.579254
555 2 0.0 3.970595 1.635275 39.539986
556 1 0.0 4.280303 1.244445 38.713982
557 1 0.0 10.087244 1.863659 42.168697
558 2 0.0 10.961876 2.262893 42.087543
559 1 0.0 11.03095 2.399213 41.134865
560 1 0.0 1.251831 10.302128 53.167053
561 2 0.0 1.85783 10.918832 53.595299
562 1 0.0 1.249145 11.506245 54.05941
563 1 0.0 6.390879 6.561177 34.584911
564 2 0.0 6.957921 5.780696 34.601227
565 1 0.0 6.347651 5.085393 34.327225
566 1 0.0 6.69091 5.071915 44.765869
567 2 0.0 6.007261 5.742207 44.646339
568 1 0.0 5.750404 5.929356 45.557358
569 1 0.0 1.444454 7.247289 51.915005
570 2 0.0 1.192189 6.448528 51.436153
571 1 0.0 2.046 6.125801 51.123409
572 1 0.0 1.281356 11.5132 50.045193
573 2 0.0 1.795651 10.855734 50.529129
574 1 0.0 2.468099 11.402043 50.953762
575 1 0.0 11.034175 1.271087 54.90152
576 2 0.0 11.040602 1.248351 53.936951
577 1 0.0 10.097876 1.239298 53.73167
578 1 0.0 11.040639 5.198981 38.959503
579 2 0.0 10.868657 4.263636 38.7967
580 1 0.0 9.919669 4.204177 38.960529
581 1 0.0 1.241295 10.495763 56.718506
582 2 0.0 1.391053 11.445005 56.804909
583 1 0.0 2.328344 11.519275 56.588287
584 1 0.0 1.759777 5.32168 57.863537
585 2 0.0 1.287409 5.413628 57.027252
586 1 0.0 1.248878 6.372242 56.924648
587 1 0.0 11.034228 7.227624 54.431618
588 2 0.0 10.648051 6.666173 55.114697
589 1 0.0 9.717654 6.653339 54.859451
590 1 0.0 9.11431 7.115497 39.380253
591 2 0.0 8.536459 6.442443 39.759777
592 1 0.0 8.367429 6.798645 40.640404
593 1 0.0 8.268313 9.439963 46.668133
594 2 0.0 8.28561 10.231096 47.220184
595 1 0.0 8.400324 10.929249 46.564152
596 1 0.0 9.344063 4.478291 41.76366
597 2 0.0 8.526896 4.201737 42.195759
598 1 0.0 7.950153 4.031996 41.441101
599 1 0.0 9.660588 3.69795 56.896214
600 2 0.0 10.236318 3.41392 57.616505
601 1 0.0 10.849684 2.824854 57.160721
602 1 0.0 10.992494 1.475572 51.064281
603 2 0.0 10.960236 2.384875 51.385342
604 1 0.0 10.016938 2.580998 51.333599
605 1 0.0 10.656713 10.273331 58.086567
606 2 0.0 10.593768 9.517515 57.490135
607 1 0.0 11.04329 8.828274 57.99395
608 1 0.0 5.022926 3.45669 59.25053
609 2 0.0 4.237503 3.777292 58.790882
610 1 0.0 4.612515 4.118279 57.969879
611 1 0.0 5.715011 6.820162 57.853546
612 2 0.0 6.672394 6.710746 57.804562
613 1 0.0 6.987264 7.533261 58.198616
614 1 0.0 5.186216 8.339194 36.301949
615 2 0.0 5.027608 8.520848 37.236183
616 1 0.0 5.264844 7.680001 37.645634
617 1 0.0 5.191218 1.220338 49.703156
618 2 0.0 6.149357 1.212595 49.816574
619 1 0.0 6.237148 1.289364 50.774361
620 1 0.0 1.303465 8.421384 45.905636
621 2 0.0 1.224576 7.508487 45.603394
622 1 0.0 1.742342 7.034171 46.265133
623 1 0.0 2.679328 11.10989 39.19912
624 2 0.0 1.931233 11.019753 39.801765
625 1 0.0 1.243634 11.515832 39.341259
626 1 0.0 7.2652 9.081866 50.97768
627 2 0.0 7.126687 8.457733 50.255032
628 1 0.0 7.554871 8.908882 49.517414
629 1 0.0 7.623041 11.513879 58.275902
630 2 0.0 8.168145 11.291507 57.511463
631 1 0.0 7.975573 10.353169 57.395741
632 1 0.0 11.046679 7.847953 45.802898
633 2 0.0 10.454015 7.774707 46.560749
634 1 0.0 11.035701 8.014218 47.292343
635 1 0.0 8.938913 3.575244 46.893543
636 2 0.0 9.531818 3.862988 47.598255
637 1 0.0 8.9222 3.976517 48.337463
638 1 0.0 2.156284 2.493048 55.174763
639 2 0.0 2.724839 1.842985 55.605015
640 1 0.0 3.165783 1.433767 54.850655
641 1 0.0 1.247241 11.513063 36.593861
642 2 0.0 1.911093 11.334939 35.916718
643 1 0.0 2.704329 11.194114 36.447659
644 1 0.0 3.600361 9.625015 44.866661
645 2 0.0 3.581953 8.861967 44.276428
646 1 0.0 3.835686 8.144873 44.870018
647 1 0.0 9.189053 1.245279 39.455429
648 2 0.0 8.590252 1.935635 39.764942
649 1 0.0 8.045921 2.092052 38.983795
650 1 0.0 8.235552 6.432492 52.553974
651 2 0.0 8.509871 5.507565 52.539402
652 1 0.0 8.007272 5.139146 53.276024
653 1 0.0 7.818284 11.355 43.911076
654 2 0.0 6.87707 11.517376 43.774307
655 1 0.0 6.611341 10.737505 43.272167
656 3 0.0 9.204282 9.007965 53.409763
657 3 0.0 6.568221 8.429445 44.757694
658 3 0.0 3.824234 5.936927 56.064236
659 2 0.0 11.039765 10.762052 47.403015
660 1 0.0 11.064796 11.547176 46.840782
661 2 0.0 11.031547 11.515823 40.293465
662 1 0.0 11.033391 11.513727 41.25946
663 2 0.0 11.039655 10.569589 52.085194
664 1 0.0 11.077136 11.525496 51.951057
665 4 0.0 0.614 0.709014 66.695999
666 4 0.0 0.614 0.709014 73.391998
667 4 0.0 0.614 4.963014 66.695999
668 4 0.0 0.614 4.963014 73.391998
669 4 0.0 0.614 9.217015 66.695999
670 4 0.0 0.614 9.217015 73.391998
671 4 0.0 3.07 0.709014 66.695999
672 4 0.0 3.07 0.709014 73.391998
673 4 0.0 3.07 4.963014 66.695999
674 4 0.0 3.07 4.963014 73.391998
675 4 0.0 3.07 9.217015 66.695999
676 4 0.0 3.07 9.217015 73.391998
677 4 0.0 5.526 0.709014 66.695999
678 4 0.0 5.526 0.709014 73.391998
679 4 0.0 5.526 4.963014 66.695999
680 4 0.0 5.526 4.963014 73.391998
681 4 0.0 5.526 9.217015 66.695999
682 4 0.0 5.526 9.217015 73.391998
683 4 0.0 7.982 0.709014 66.695999
684 4 0.0 7.982 0.709014 73.391998
685 4 0.0 7.982 4.963014 66.695999
686 4 0.0 7.982 4.963014 73.391998
687 4 0.0 7.982 9.217015 66.695999
688 4 0.0 7.982 9.217015 73.391998
689 4 0.0 10.438 0.709014 66.695999
690 4 0.0 10.438 0.709014 73.391998
691 4 0.0 10.438 4.963014 66.695999
692 4 0.0 10.438 4.963014 73.391998
693 4 0.0 10.438 9.217015 66.695999
694 4 0.0 10.438 9.217015 73.391998
695 4 0.0 0.614 3.544986 66.695999
696 4 0.0 0.614 3.544986 73.391998
697 4 0.0 0.614 7.798986 66.695999
698 4 0.0 0.614 7.798986 73.391998
699 4 0.0 0.614 12.052986 66.695999
700 4 0.0 0.614 12.052986 73.391998
701 4 0.0 3.07 3.544986 66.695999
702 4 0.0 3.07 3.544986 73.391998
703 4 0.0 3.07 7.798986 66.695999
704 4 0.0 3.07 7.798986 73.391998
705 4 0.0 3.07 12.052986 66.695999
706 4 0.0 3.07 12.052986 73.391998
707 4 0.0 5.526 3.544986 66.695999
708 4 0.0 5.526 3.544986 73.391998
709 4 0.0 5.526 7.798986 66.695999
710 4 0.0 5.526 7.798986 73.391998
711 4 0.0 5.526 12.052986 66.695999
712 4 0.0 5.526 12.052986 73.391998
713 4 0.0 7.982 3.544986 66.695999
714 4 0.0 7.982 3.544986 73.391998
715 4 0.0 7.982 7.798986 66.695999
716 4 0.0 7.982 7.798986 73.391998
717 4 0.0 7.982 12.052986 66.695999
718 4 0.0 7.982 12.052986 73.391998
719 4 0.0 10.438 3.544986 66.695999
720 4 0.0 10.438 3.544986 73.391998
721 4 0.0 10.438 7.798986 66.695999
722 4 0.0 10.438 7.798986 73.391998
723 4 0.0 10.438 12.052986 66.695999
724 4 0.0 10.438 12.052986 73.391998
725 4 0.0 0.614 2.836014 70.043999
726 4 0.0 0.614 7.090014 70.043999
727 4 0.0 0.614 11.344015 70.043999
728 4 0.0 3.07 2.836014 70.043999
729 4 0.0 3.07 7.090014 70.043999
730 4 0.0 3.07 11.344015 70.043999
731 4 0.0 5.526 2.836014 70.043999
732 4 0.0 5.526 7.090014 70.043999
733 4 0.0 5.526 11.344015 70.043999
734 4 0.0 7.982 2.836014 70.043999
735 4 0.0 7.982 7.090014 70.043999
736 4 0.0 7.982 11.344015 70.043999
737 4 0.0 10.438 2.836014 70.043999
738 4 0.0 10.438 7.090014 70.043999
739 4 0.0 10.438 11.344015 70.043999
740 4 0.0 0.614 1.417986 70.043999
741 4 0.0 0.614 5.671986 70.043999
742 4 0.0 0.614 9.925986 70.043999
743 4 0.0 3.07 1.417986 70.043999
744 4 0.0 3.07 5.671986 70.043999
745 4 0.0 3.07 9.925986 70.043999
746 4 0.0 5.526 1.417986 70.043999
747 4 0.0 5.526 5.671986 70.043999
748 4 0.0 5.526 9.925986 70.043999
749 4 0.0 7.982 1.417986 70.043999
750 4 0.0 7.982 5.671986 70.043999
751 4 0.0 7.982 9.925986 70.043999
752 4 0.0 10.438 1.417986 70.043999
753 4 0.0 10.438 5.671986 70.043999
754 4 0.0 10.438 9.925986 70.043999
755 4 0.0 1.842 0.709014 70.043999
756 4 0.0 1.842 4.963014 70.043999
757 4 0.0 1.842 9.217015 70.043999
758 4 0.0 4.298 0.709014 70.043999
759 4 0.0 4.298 4.963014 70.043999
760 4 0.0 4.298 9.217015 70.043999
761 4 0.0 6.754 0.709014 70.043999
762 4 0.0 6.754 4.963014 70.043999
763 4 0.0 6.754 9.217015 70.043999
764 4 0.0 9.21 0.709014 70.043999
765 4 0.0 9.21 4.963014 70.043999
766 4 0.0 9.21 9.217015 70.043999
767 4 0.0 11.666 0.709014 70.043999
768 4 0.0 11.666 4.963014 70.043999
769 4 0.0 11.666 9.217015 70.043999
770 4 0.0 1.842 3.544986 70.043999
771 4 0.0 1.842 7.798986 70.043999
772 4 0.0 1.842 12.052986 70.043999
773 4 0.0 4.298 3.544986 70.043999
774 4 0.0 4.298 7.798986 70.043999
775 4 0.0 4.298 12.052986 70.043999
776 4 0.0 6.754 3.544986 70.043999
777 4 0.0 6.754 7.798986 70.043999
778 4 0.0 6.754 12.052986 70.043999
779 4 0.0 9.21 3.544986 70.043999
780 4 0.0 9.21 7.798986 70.043999
781 4 0.0 9.21 12.052986 70.043999
782 4 0.0 11.666 3.544986 70.043999
783 4 0.0 11.666 7.798986 70.043999
784 4 0.0 11.666 12.052986 70.043999
785 4 0.0 1.842 2.836014 66.695999
786 4 0.0 1.842 2.836014 73.391998
787 4 0.0 1.842 7.090014 66.695999
788 4 0.0 1.842 7.090014 73.391998
789 4 0.0 1.842 11.344015 66.695999
790 4 0.0 1.842 11.344015 73.391998
791 4 0.0 4.298 2.836014 66.695999
792 4 0.0 4.298 2.836014 73.391998
793 4 0.0 4.298 7.090014 66.695999
794 4 0.0 4.298 7.090014 73.391998
795 4 0.0 4.298 11.344015 66.695999
796 4 0.0 4.298 11.344015 73.391998
797 4 0.0 6.754 2.836014 66.695999
798 4 0.0 6.754 2.836014 73.391998
799 4 0.0 6.754 7.090014 66.695999
800 4 0.0 6.754 7.090014 73.391998
801 4 0.0 6.754 11.344015 66.695999
802 4 0.0 6.754 11.344015 73.391998
803 4 0.0 9.21 2.836014 66.695999
804 4 0.0 9.21 2.836014 73.391998
805 4 0.0 9.21 7.090014 66.695999
806 4 0.0 9.21 7.090014 73.391998
807 4 0.0 9.21 11.344015 66.695999
808 4 0.0 9.21 11.344015 73.391998
809 4 0.0 11.666 2.836014 66.695999
810 4 0.0 11.666 2.836014 73.391998
811 4 0.0 11.666 7.090014 66.695999
812 4 0.0 11.666 7.090014 73.391998
813 4 0.0 11.666 11.344015 66.695999
814 4 0.0 11.666 11.344015 73.391998
815 4 0.0 1.842 1.417986 66.695999
816 4 0.0 1.842 1.417986 73.391998
817 4 0.0 1.842 5.671986 66.695999
818 4 0.0 1.842 5.671986 73.391998
819 4 0.0 1.842 9.925986 66.695999
820 4 0.0 1.842 9.925986 73.391998
821 4 0.0 4.298 1.417986 66.695999
822 4 0.0 4.298 1.417986 73.391998
823 4 0.0 4.298 5.671986 66.695999
824 4 0.0 4.298 5.671986 73.391998
825 4 0.0 4.298 9.925986 66.695999
826 4 0.0 4.298 9.925986 73.391998
827 4 0.0 6.754 1.417986 66.695999
828 4 0.0 6.754 1.417986 73.391998