LAMMPS Description

  801 atoms
  534 bonds
  267 angles

  2 atom types
  1 bond types
  1 angle types

  0.0 20.0 xlo xhi
  0.0 20.0 ylo yhi
  0.0 20.0 zlo zhi


Masses

1 15.9994 # O
2 1.008 # H

Atoms

1 1 2 0.4238 16.410846 11.184165 3.936692
2 1 1 -0.8476 16.374531 10.441963 4.552135
3 1 2 0.4238 16.134595 9.711468 3.969245
4 2 2 0.4238 17.590111 6.588624 5.185268
5 2 1 -0.8476 17.943706 7.400253 5.568912
6 2 2 0.4238 18.853847 7.391841 5.248714
7 3 2 0.4238 13.495113 6.037801 12.149133
8 3 1 -0.8476 13.319271 6.113277 13.094827
9 3 2 0.4238 14.123312 6.541061 13.413374
10 4 2 0.4238 7.947785 1.801984 9.945394
11 4 1 -0.8476 8.335766 0.922616 9.860918
12 4 2 0.4238 8.821415 0.83869 10.690409
13 5 2 0.4238 3.243877 6.535618 2.289907
14 5 1 -0.8476 3.449287 5.681714 1.890397
15 5 2 0.4238 3.053609 5.066927 2.520023
16 6 2 0.4238 5.736106 18.922821 2.130691
17 6 1 -0.8476 5.028902 18.381283 2.501572
18 6 2 0.4238 4.296355 18.573732 1.903833
19 7 2 0.4238 17.963186 14.652762 7.701708
20 7 1 -0.8476 18.167178 15.5717 7.913593
21 7 2 0.4238 18.494244 15.499558 8.818456
22 8 2 0.4238 8.245195 10.809941 14.992027
23 8 1 -0.8476 7.482044 11.042589 14.449414
24 8 2 0.4238 7.13694 10.174387 14.208412
25 9 2 0.4238 12.039992 17.184125 15.740425
26 9 1 -0.8476 12.371375 16.41531 15.260776
27 9 2 0.4238 13.326428 16.532211 15.332623
28 10 2 0.4238 13.821494 17.287052 10.53586
29 10 1 -0.8476 14.169817 17.700257 11.335164
30 10 2 0.4238 14.364549 18.594153 11.028597
31 11 2 0.4238 12.419389 3.539127 8.363939
32 11 1 -0.8476 11.826481 2.789339 8.495211
33 11 2 0.4238 12.184229 2.390672 9.297728
34 12 2 0.4238 5.90974 12.7702 5.898167
35 12 1 -0.8476 5.509337 12.332169 6.65893
36 12 2 0.4238 4.768915 12.917612 6.858896
37 13 2 0.4238 17.395351 17.165483 15.544908
38 13 1 -0.8476 18.189815 16.680648 15.799299
39 13 2 0.4238 18.621539 17.304532 16.395401
40 14 2 0.4238 4.260092 18.157225 16.313394
41 14 1 -0.8476 3.815601 18.846493 15.80517
42 14 2 0.4238 4.096801 18.642838 14.904945
43 15 2 0.4238 2.340093 17.9218 12.725183
44 15 1 -0.8476 2.187647 16.971716 12.796274
45 15 2 0.4238 2.756308 16.733765 13.538539
46 16 2 0.4238 13.465597 4.099877 1.417767
47 16 1 -0.8476 12.823873 3.571271 0.928157
48 16 2 0.4238 12.235025 3.271422 1.631224
49 17 2 0.4238 13.010458 1.407039 16.901195
50 17 1 -0.8476 13.693007 1.180703 16.257882
51 17 2 0.4238 14.361635 0.764296 16.815104
52 18 2 0.4238 3.087961 3.305181 7.818563
53 18 1 -0.8476 2.478208 2.81906 7.250372
54 18 2 0.4238 1.62149 3.072582 7.614671
55 19 2 0.4238 6.60616 11.453665 1.942634
56 19 1 -0.8476 7.327477 10.895031 2.256613
57 19 2 0.4238 7.885914 10.831341 1.472364
58 20 2 0.4238 10.287809 6.229274 15.643847
59 20 1 -0.8476 9.584741 6.109019 14.994088
60 20 2 0.4238 8.920164 5.632045 15.50574
61 21 2 0.4238 12.742665 11.808796 17.396631
62 21 1 -0.8476 12.814742 12.346148 18.19476
63 21 2 0.4238 13.685666 12.095335 18.525726
64 22 2 0.4238 6.132561 6.085818 13.396992
65 22 1 -0.8476 5.315302 5.81253 12.962992
66 22 2 0.4238 4.697583 6.494091 13.254287
67 23 2 0.4238 7.63106 17.024079 16.386128
68 23 1 -0.8476 8.08006 16.431253 15.771384
69 23 2 0.4238 8.818652 16.975772 15.473164
70 24 2 0.4238 5.486415 8.41893 12.244246
71 24 1 -0.8476 5.475867 7.797895 11.505898
72 24 2 0.4238 5.284228 8.378837 10.759752
73 25 2 0.4238 15.660128 8.505796 16.472983
74 25 1 -0.8476 15.800129 9.442326 16.287876
75 25 2 0.4238 16.591451 9.631701 16.806433
76 26 2 0.4238 11.529041 3.702569 15.007752
77 26 1 -0.8476 11.437484 2.794286 15.320152
78 26 2 0.4238 10.790391 2.891824 16.029173
79 27 2 0.4238 8.700043 9.251023 12.122731
80 27 1 -0.8476 9.514186 9.752624 12.251264
81 27 2 0.4238 9.690531 10.077824 11.36014
82 28 2 0.4238 2.96238 11.847214 15.325983
83 28 1 -0.8476 2.149317 12.153904 14.906671
84 28 2 0.4238 1.621099 12.421583 15.668436
85 29 2 0.4238 3.123901 15.37264 7.484884
86 29 1 -0.8476 3.641376 14.915432 6.810989
87 29 2 0.4238 4.297554 14.451175 7.344702
88 30 2 0.4238 16.992668 10.383233 6.849821
89 30 1 -0.8476 17.319341 10.189607 5.962833
90 30 2 0.4238 18.094388 9.646342 6.150237
91 31 2 0.4238 7.469647 19.2225 3.079052
92 31 1 -0.8476 7.31889 18.482225 3.679234
93 31 2 0.4238 7.168621 17.754384 3.063912
94 32 2 0.4238 3.84623 4.357571 13.738844
95 32 1 -0.8476 3.665817 3.544684 13.251381
96 32 2 0.4238 4.552027 3.181199 13.135345
97 33 2 0.4238 17.618252 1.319066 6.563306
98 33 1 -0.8476 17.694345 2.039947 7.200091
99 33 2 0.4238 18.345201 2.612305 6.776125
100 34 2 0.4238 10.816678 12.192901 5.111641
101 34 1 -0.8476 10.176983 12.53617 4.476101
102 34 2 0.4238 9.365998 12.552012 4.998601
103 35 2 0.4238 7.293134 5.264946 7.135617
104 35 1 -0.8476 7.498603 4.589417 6.478049
105 35 2 0.4238 7.59891 3.801813 7.026294
106 36 2 0.4238 8.36036 13.281764 2.620147
107 36 1 -0.8476 8.972123 13.916579 2.228089
108 36 2 0.4238 9.320926 14.364837 3.00806
109 37 2 0.4238 4.425287 14.198318 2.653424
110 37 1 -0.8476 4.525108 14.713113 1.843501
111 37 2 0.4238 5.124576 15.414428 2.125898
112 38 2 0.4238 1.652163 7.42947 16.943522
113 38 1 -0.8476 0.752814 7.546485 16.614231
114 38 2 0.4238 0.775237 8.455891 16.292622
115 39 2 0.4238 11.692492 12.18346 10.612396
116 39 1 -0.8476 10.786235 11.856768 10.558319
117 39 2 0.4238 10.584024 11.984272 9.623542
118 40 2 0.4238 17.885039 3.593623 12.233818
119 40 1 -0.8476 17.75389 4.305719 11.59611
120 40 2 0.4238 18.657973 4.607264 11.445584
121 41 2 0.4238 7.873465 2.626486 17.209211
122 41 1 -0.8476 8.656773 2.391161 16.697348
123 41 2 0.4238 9.284036 2.153772 17.390992
124 42 2 0.4238 8.058092 19.069552 7.715285
125 42 1 -0.8476 7.774564 18.554531 6.950224
126 42 2 0.4238 7.555052 19.246467 6.31462
127 43 2 0.4238 15.617741 5.468106 4.692475
128 43 1 -0.8476 15.135169 4.638925 4.79512
129 43 2 0.4238 15.093198 4.319048 3.885796
130 44 2 0.4238 16.087574 6.321661 2.14888
131 44 1 -0.8476 16.379056 5.584266 2.698645
132 44 2 0.4238 16.750128 6.040605 3.463506
133 45 2 0.4238 11.099633 4.040852 6.367039
134 45 1 -0.8476 11.723278 3.483845 6.848457
135 45 2 0.4238 12.572324 3.823748 6.540984
136 46 2 0.4238 14.733153 16.080722 8.912955
137 46 1 -0.8476 15.233499 15.483507 9.482115
138 46 2 0.4238 15.618116 14.87328 8.841299
139 47 2 0.4238 2.036617 4.541771 16.303004
140 47 1 -0.8476 2.446442 4.35843 15.448964
141 47 2 0.4238 1.677823 4.290875 14.869642
142 48 2 0.4238 2.686117 18.357562 8.926237
143 48 1 -0.8476 3.635979 18.203283 8.856131
144 48 2 0.4238 3.667787 17.386821 8.342973
145 49 2 0.4238 13.801338 8.81361 1.93171
146 49 1 -0.8476 12.951161 8.358791 1.895761
147 49 2 0.4238 12.75099 8.236509 2.831673
148 50 2 0.4238 10.592042 14.038075 5.968505
149 50 1 -0.8476 11.04612 14.781813 5.554235
150 50 2 0.4238 11.970483 14.582836 5.746366
151 51 2 0.4238 14.247355 13.17764 10.57991
152 51 1 -0.8476 14.86492 13.382543 11.292357
153 51 2 0.4238 15.663447 13.614771 10.803094
154 52 2 0.4238 10.182228 12.392409 12.064024
155 52 1 -0.8476 9.956183 13.324019 12.173386
156 52 2 0.4238 9.935133 13.632462 11.259399
157 53 2 0.4238 3.589987 5.361685 11.814621
158 53 1 -0.8476 4.41465 5.659812 11.412122
159 53 2 0.4238 4.283354 5.418716 10.487142
160 54 2 0.4238 4.525893 0.760686 15.351225
161 54 1 -0.8476 4.022246 1.423134 15.839545
162 54 2 0.4238 4.641018 1.668852 16.537898
163 55 2 0.4238 8.122371 15.477568 2.724879
164 55 1 -0.8476 7.261363 15.075414 2.891887
165 55 2 0.4238 6.842226 15.134915 2.024859
166 56 2 0.4238 13.349617 10.597247 1.986603
167 56 1 -0.8476 13.547439 11.527364 1.823198
168 56 2 0.4238 12.69395 11.862769 1.523175
169 57 2 0.4238 16.633508 18.261639 0.763414
170 57 1 -0.8476 17.18828 17.746191 1.361323
171 57 2 0.4238 17.244102 18.325858 2.130624
172 58 2 0.4238 19.21546 5.502633 15.730467
173 58 1 -0.8476 18.405542 5.555593 16.252176
174 58 2 0.4238 17.958277 6.309797 15.849579
175 59 2 0.4238 14.430215 10.969814 10.805326
176 59 1 -0.8476 14.643076 10.192326 11.335567
177 59 2 0.4238 14.913263 10.589752 12.17223
178 60 2 0.4238 5.797249 10.285052 8.255712
179 60 1 -0.8476 5.672569 9.453679 8.729239
180 60 2 0.4238 5.618138 8.818302 8.005163
181 61 2 0.4238 10.186059 6.438198 7.466147
182 61 1 -0.8476 9.853347 6.545618 6.566859
183 61 2 0.4238 8.905997 6.407798 6.687219
184 62 2 0.4238 13.506256 14.076232 16.965029
185 62 1 -0.8476 13.770901 13.64916 16.141302
186 62 2 0.4238 13.711531 14.377546 15.511315
187 63 2 0.4238 17.676611 1.798073 17.018282
188 63 1 -0.8476 17.850191 2.727926 16.828026
189 63 2 0.4238 18.051048 2.704046 15.884607
190 64 2 0.4238 14.84805 16.039721 13.578802
191 64 1 -0.8476 15.457114 16.540421 13.02266
192 64 2 0.4238 15.008822 16.520752 12.168493
193 65 2 0.4238 8.977199 13.735744 6.219083
194 65 1 -0.8476 8.452764 14.361774 5.705265
195 65 2 0.4238 8.074276 14.918772 6.396246
196 66 2 0.4238 16.883602 6.646025 14.154457
197 66 1 -0.8476 15.960427 6.73627 13.888832
198 66 2 0.4238 15.542826 7.016869 14.712135
199 67 2 0.4238 4.494192 15.299707 8.752554
200 67 1 -0.8476 4.939584 16.15559 8.759301
201 67 2 0.4238 5.173991 16.265441 7.829817
202 68 2 0.4238 6.136069 4.102723 19.215342
203 68 1 -0.8476 5.686865 4.900233 18.910142
204 68 2 0.4238 5.608141 4.734336 17.962917
205 69 2 0.4238 10.105295 8.122584 2.636101
206 69 1 -0.8476 10.367783 7.324868 3.111185
207 69 2 0.4238 11.29324 7.235033 2.853478
208 70 2 0.4238 17.743243 2.802766 8.853807
209 70 1 -0.8476 18.018661 2.342775 9.655995
210 70 2 0.4238 18.502923 3.033008 10.12506
211 71 2 0.4238 6.763714 16.860462 0.750755
212 71 1 -0.8476 7.501166 16.69578 1.350753
213 71 2 0.4238 8.224603 17.155847 0.908113
214 72 2 0.4238 17.05369 1.203961 4.324131
215 72 1 -0.8476 17.003191 1.990338 4.880921
216 72 2 0.4238 16.867876 2.688047 4.228352
217 73 2 0.4238 11.836473 10.198842 15.600274
218 73 1 -0.8476 11.053985 10.3904 15.069264
219 73 2 0.4238 10.489833 10.848472 15.703973
220 74 2 0.4238 2.580897 6.058382 4.218837
221 74 1 -0.8476 3.384491 6.590798 4.260366
222 74 2 0.4238 3.689861 6.420652 5.159673
223 75 2 0.4238 13.357852 19.170109 14.375843
224 75 1 -0.8476 13.392495 19.242744 13.414346
225 75 2 0.4238 12.456283 19.245805 13.180999
226 76 2 0.4238 12.653936 9.337572 18.303551
227 76 1 -0.8476 12.103191 8.961583 17.606224
228 76 2 0.4238 12.55377 8.128026 17.424246
229 77 2 0.4238 16.302383 10.940325 9.850949
230 77 1 -0.8476 16.241296 11.89499 9.976793
231 77 2 0.4238 16.203143 12.213766 9.066914
232 78 2 0.4238 14.138122 9.679334 16.723679
233 78 1 -0.8476 14.045529 8.723277 16.81498
234 78 2 0.4238 13.709349 8.471888 15.946222
235 79 2 0.4238 6.395217 11.975664 8.579748
236 79 1 -0.8476 6.903623 11.924323 9.398186
237 79 2 0.4238 7.744063 12.318895 9.135644
238 80 2 0.4238 15.711931 2.246963 12.76403
239 80 1 -0.8476 15.160399 1.643637 13.276636
240 80 2 0.4238 14.996186 0.935866 12.641776
241 81 2 0.4238 10.370344 0.752853 11.539298
242 81 1 -0.8476 10.246144 1.57319 11.046779
243 81 2 0.4238 10.974842 1.538624 10.415307
244 82 2 0.4238 8.871015 4.366315 17.684415
245 82 1 -0.8476 7.967372 4.470378 18.006214
246 82 2 0.4238 7.47953 4.615448 17.186508
247 83 2 0.4238 16.432913 4.77807 9.309265
248 83 1 -0.8476 16.887623 4.320271 10.02663
249 83 2 0.4238 17.81214 4.519777 9.83579
250 84 2 0.4238 6.299492 3.44241 15.223219
251 84 1 -0.8476 6.945615 3.617591 15.91805
252 84 2 0.4238 7.734253 3.83497 15.406434
253 85 2 0.4238 2.206041 13.774422 17.931224
254 85 1 -0.8476 2.935949 13.409307 17.416559
255 85 2 0.4238 3.57294 13.18505 18.105693
256 86 2 0.4238 1.69532 16.360016 7.06405
257 86 1 -0.8476 1.925096 17.063945 7.68263
258 86 2 0.4238 2.179315 17.778283 7.085933
259 87 2 0.4238 16.096033 2.432998 9.551664
260 87 1 -0.8476 15.50838 3.19588 9.611901
261 87 2 0.4238 14.683323 2.789208 9.903196
262 88 2 0.4238 9.478456 18.899607 13.38016
263 88 1 -0.8476 8.944107 18.680771 14.153164
264 88 2 0.4238 8.524732 17.856383 13.87846
265 89 2 0.4238 17.848624 6.028704 8.110517
266 89 1 -0.8476 18.320103 6.528823 8.787674
267 89 2 0.4238 19.240823 6.337969 8.57133
268 90 2 0.4238 17.082778 8.254996 14.733129
269 90 1 -0.8476 17.515373 8.840709 14.100077
270 90 2 0.4238 18.002265 9.437396 14.681329
271 91 2 0.4238 1.494432 15.309284 17.074015
272 91 1 -0.8476 0.761045 15.683292 16.57081
273 91 2 0.4238 0.942284 16.629255 16.627899
274 92 2 0.4238 13.229498 4.905271 5.304503
275 92 1 -0.8476 12.536384 4.361861 4.910483
276 92 2 0.4238 13.022561 3.882461 4.228749
277 93 2 0.4238 11.646066 14.651971 17.146305
278 93 1 -0.8476 11.306108 15.497527 17.46319
279 93 2 0.4238 11.082688 15.944311 16.637708
280 94 2 0.4238 15.128906 5.311761 12.751871
281 94 1 -0.8476 15.942397 5.071999 12.291762
282 94 2 0.4238 16.176815 4.24069 12.721792
283 95 2 0.4238 2.351968 19.245891 11.738551
284 95 1 -0.8476 1.683578 18.75927 11.241148
285 95 2 0.4238 2.201837 18.397983 10.511879
286 96 2 0.4238 13.08999 17.547882 13.681059
287 96 1 -0.8476 12.176686 17.806773 13.853696
288 96 2 0.4238 11.700989 16.984958 13.682561
289 97 2 0.4238 4.262099 6.501918 16.811282
290 97 1 -0.8476 4.053838 7.31246 16.331071
291 97 2 0.4238 3.300456 7.651317 16.829614
292 98 2 0.4238 18.235573 7.892336 1.697093
293 98 1 -0.8476 17.464823 7.486356 2.111915
294 98 2 0.4238 16.742762 8.014379 1.750289
295 99 2 0.4238 19.230014 0.914443 13.574845
296 99 1 -0.8476 18.724708 1.73453 13.630322
297 99 2 0.4238 18.047423 1.507639 14.278982
298 100 2 0.4238 14.948212 10.681144 18.305083
299 100 1 -0.8476 15.842162 10.440633 18.033128
300 100 2 0.4238 15.946822 9.57163 18.439126
301 101 2 0.4238 14.825726 2.722576 4.313849
302 101 1 -0.8476 14.206799 2.50825 3.605367
303 101 2 0.4238 13.450113 2.168199 4.098059
304 102 2 0.4238 12.691618 9.315725 10.498739
305 102 1 -0.8476 13.249067 8.822826 11.11295
306 102 2 0.4238 13.839557 8.35226 10.512247
307 103 2 0.4238 11.771261 7.029753 12.374472
308 103 1 -0.8476 11.599425 6.100762 12.570433
309 103 2 0.4238 11.195032 6.153181 13.444889
310 104 2 0.4238 15.541102 0.789706 6.787631
311 104 1 -0.8476 15.504354 1.629524 6.314017
312 104 2 0.4238 14.798945 1.467617 5.675942
313 105 2 0.4238 14.060029 9.494186 14.616629
314 105 1 -0.8476 14.561584 9.954946 13.933185
315 105 2 0.4238 15.333941 9.38511 13.834669
316 106 2 0.4238 10.148286 3.886815 13.219815
317 106 1 -0.8476 9.371239 3.499248 12.799169
318 106 2 0.4238 9.769054 2.855373 12.200736
319 107 2 0.4238 7.224203 5.24664 14.323714
320 107 1 -0.8476 6.841228 4.474204 13.890555
321 107 2 0.4238 7.612559 4.082756 13.463038
322 108 2 0.4238 2.517604 4.400011 18.223086
323 108 1 -0.8476 2.99929 4.967129 17.60883
324 108 2 0.4238 3.523384 5.511058 18.209181
325 109 2 0.4238 7.055835 7.035269 10.847433
326 109 1 -0.8476 7.065497 6.421195 10.103274
327 109 2 0.4238 6.288797 5.877818 10.283366
328 110 2 0.4238 4.422343 3.527062 15.59541
329 110 1 -0.8476 4.423916 3.306101 16.534626
330 110 2 0.4238 5.362356 3.364009 16.751265
331 111 2 0.4238 16.848619 13.189141 5.128584
332 111 1 -0.8476 16.328812 13.494136 4.375103
333 111 2 0.4238 15.720081 14.116057 4.791774
334 112 2 0.4238 6.012087 12.860845 14.870291
335 112 1 -0.8476 5.472913 12.24081 15.376059
336 112 2 0.4238 5.965054 11.417532 15.271349
337 113 2 0.4238 9.781012 5.478577 11.280199
338 113 1 -0.8476 10.276649 4.657468 11.385453
339 113 2 0.4238 9.67907 4.01193 10.989052
340 114 2 0.4238 5.485503 7.904708 18.976872
341 114 1 -0.8476 4.944368 8.209824 18.238611
342 114 2 0.4238 4.075582 8.293793 18.649846
343 115 2 0.4238 4.822811 3.658989 10.300182
344 115 1 -0.8476 4.559994 3.129487 11.062749
345 115 2 0.4238 3.667824 3.454942 11.23323
346 116 2 0.4238 8.261286 7.809373 9.677745
347 116 1 -0.8476 8.811881 7.187683 9.186521
348 116 2 0.4238 9.387678 6.841408 9.878985
349 117 2 0.4238 5.412262 6.039967 8.023872
350 117 1 -0.8476 5.463962 6.484287 8.878776
351 117 2 0.4238 4.764092 7.144122 8.802926
352 118 2 0.4238 5.555328 4.907133 1.494335
353 118 1 -0.8476 5.723596 4.024687 1.142298
354 118 2 0.4238 5.367951 3.460852 1.839836
355 119 2 0.4238 0.902967 5.238136 8.403234
356 119 1 -0.8476 1.336487 4.995735 9.230432
357 119 2 0.4238 2.013698 5.678621 9.307922
358 120 2 0.4238 10.903538 11.297915 2.397712
359 120 1 -0.8476 10.61937 10.50494 1.927188
360 120 2 0.4238 9.676773 10.479101 2.131629
361 121 2 0.4238 5.026111 14.816892 10.253279
362 121 1 -0.8476 4.483414 15.279104 10.903505
363 121 2 0.4238 4.752715 16.196219 10.771857
364 122 2 0.4238 16.512896 4.017315 1.005197
365 122 1 -0.8476 15.564904 4.179252 1.08293
366 122 2 0.4238 15.494374 5.094939 0.787132
367 123 2 0.4238 17.984087 12.456767 16.721262
368 123 1 -0.8476 17.825347 12.498055 15.770447
369 123 2 0.4238 16.880351 12.689468 15.734435
370 124 2 0.4238 19.249607 5.165353 1.144088
371 124 1 -0.8476 18.519785 4.773381 1.63873
372 124 2 0.4238 18.751865 4.998301 2.547853
373 125 2 0.4238 5.797303 9.255028 3.930723
374 125 1 -0.8476 5.36343 8.623249 3.344581
375 125 2 0.4238 4.959937 8.01277 3.97344
376 126 2 0.4238 17.16467 17.371589 11.35311
377 126 1 -0.8476 17.618552 17.729586 12.125627
378 126 2 0.4238 17.675176 18.667512 11.906443
379 127 2 0.4238 16.631276 11.431343 11.570645
380 127 1 -0.8476 15.822637 11.951526 11.65106
381 127 2 0.4238 15.978771 12.437012 12.470132
382 128 2 0.4238 18.259979 16.079697 11.951597
383 128 1 -0.8476 19.107718 16.517683 12.094636
384 128 2 0.4238 18.988067 16.901546 12.971726
385 129 2 0.4238 10.722725 9.673246 9.368873
386 129 1 -0.8476 11.32236 10.24174 8.870668
387 129 2 0.4238 11.875922 10.609057 9.570383
388 130 2 0.4238 1.468978 4.370834 4.750762
389 130 1 -0.8476 1.334938 4.612515 5.675195
390 130 2 0.4238 1.467164 3.768144 6.122977
391 131 2 0.4238 9.832876 10.43083 5.934752
392 131 1 -0.8476 8.915234 10.681431 6.096265
393 131 2 0.4238 8.643811 11.011777 5.231306
394 132 2 0.4238 11.602371 1.778033 13.906776
395 132 1 -0.8476 11.472129 0.866123 14.193847
396 132 2 0.4238 11.02942 0.985872 15.042742
397 133 2 0.4238 14.461705 19.245969 15.651019
398 133 1 -0.8476 15.132689 18.823436 15.101291
399 133 2 0.4238 15.34231 18.033774 15.614561
400 134 2 0.4238 15.054503 4.785769 16.633674
401 134 1 -0.8476 15.921801 4.743657 17.054357
402 134 2 0.4238 16.318793 3.981107 16.616328
403 135 2 0.4238 7.725223 14.806024 16.543757
404 135 1 -0.8476 8.498699 14.764504 15.968461
405 135 2 0.4238 9.222549 14.833514 16.602679
406 136 2 0.4238 5.75665 18.801509 8.681574
407 136 1 -0.8476 5.124719 18.745249 9.408521
408 136 2 0.4238 5.396856 17.92962 9.846292
409 137 2 0.4238 9.313063 1.63073 14.014545
410 137 1 -0.8476 9.998639 2.299558 14.131203
411 137 2 0.4238 9.550322 2.949712 14.685518
412 138 2 0.4238 15.275112 7.096514 18.78118
413 138 1 -0.8476 15.062662 7.743606 18.09774
414 138 2 0.4238 14.658517 8.452156 18.613082
415 139 2 0.4238 6.63724 1.504044 17.028749
416 139 1 -0.8476 7.218544 0.777105 17.282911
417 139 2 0.4238 7.278427 0.894833 18.238687
418 140 2 0.4238 12.401586 6.762308 1.62346
419 140 1 -0.8476 11.975221 6.624024 0.769034
420 140 2 0.4238 11.282025 7.295052 0.781452
421 141 2 0.4238 12.369367 12.787751 13.678819
422 141 1 -0.8476 11.510644 13.191503 13.853556
423 141 2 0.4238 11.704785 13.750511 14.61564
424 142 2 0.4238 10.72048 4.384143 16.860112
425 142 1 -0.8476 11.275041 3.886045 17.472741
426 142 2 0.4238 10.641603 3.26824 17.857483
427 143 2 0.4238 5.278967 17.010851 14.296392
428 143 1 -0.8476 4.976373 16.225801 13.82407
429 143 2 0.4238 4.631071 15.681966 14.542375
430 144 2 0.4238 7.110762 14.691906 11.270231
431 144 1 -0.8476 6.24034 14.380678 11.546738
432 144 2 0.4238 6.21497 14.655603 12.471251
433 145 2 0.4238 13.716307 3.789043 16.384569
434 145 1 -0.8476 14.328089 3.209657 15.914475
435 145 2 0.4238 14.71016 2.695825 16.636246
436 146 2 0.4238 6.133466 4.842003 11.910383
437 146 1 -0.8476 6.420249 4.041086 12.365621
438 146 2 0.4238 6.190526 3.355677 11.726563
439 147 2 0.4238 8.085537 1.567491 12.93176
440 147 1 -0.8476 7.990705 1.364295 11.993319
441 147 2 0.4238 7.35953 2.035557 11.707
442 148 2 0.4238 12.664706 18.727789 3.509825
443 148 1 -0.8476 12.744199 17.860191 3.095207
444 148 2 0.4238 13.418901 17.439374 3.641691
445 149 2 0.4238 3.544153 8.116656 10.163669
446 149 1 -0.8476 2.855936 7.701419 10.697418
447 149 2 0.4238 2.735996 6.857165 10.245972
448 150 2 0.4238 2.06246 14.130122 8.566866
449 150 1 -0.8476 2.49651 13.356123 8.188079
450 150 2 0.4238 2.630487 13.630867 7.272919
451 151 2 0.4238 10.150392 13.816861 15.186857
452 151 1 -0.8476 10.4367 13.475015 16.042499
453 151 2 0.4238 10.141547 12.557427 15.999237
454 152 2 0.4238 6.834006 7.280315 18.263671
455 152 1 -0.8476 6.597795 6.348193 18.184265
456 152 2 0.4238 5.653147 6.39763 17.994133
457 153 2 0.4238 2.925173 16.679963 15.171385
458 153 1 -0.8476 3.113685 16.047879 15.875578
459 153 2 0.4238 3.588733 16.595194 16.512546
460 154 2 0.4238 6.212217 17.659055 4.951444
461 154 1 -0.8476 6.890507 16.973269 4.927502
462 154 2 0.4238 6.689759 16.523488 4.097833
463 155 2 0.4238 8.783014 4.730586 8.914813
464 155 1 -0.8476 8.007306 4.734043 9.488589
465 155 2 0.4238 7.288416 4.638588 8.852162
466 156 2 0.4238 6.585074 10.850559 16.898845
467 156 1 -0.8476 5.746573 10.400279 17.05733
468 156 2 0.4238 5.158473 11.138799 17.25653
469 157 2 0.4238 18.131035 17.6246 7.489087
470 157 1 -0.8476 17.549451 17.190269 6.853422
471 157 2 0.4238 16.955481 16.696697 7.431816
472 158 2 0.4238 19.193557 9.789261 8.536924
473 158 1 -0.8476 18.420554 10.365381 8.575738
474 158 2 0.4238 17.706883 9.756556 8.349999
475 159 2 0.4238 4.198474 2.206835 19.216988
476 159 1 -0.8476 3.526759 2.528166 18.603393
477 159 2 0.4238 2.812211 2.776285 19.202402
478 160 2 0.4238 14.228193 5.863952 2.658748
479 160 1 -0.8476 13.52225 5.634185 2.042465
480 160 2 0.4238 12.792725 5.433447 2.641174
481 161 2 0.4238 17.75567 9.669264 10.267423
482 161 1 -0.8476 17.938096 9.8118 11.204097
483 161 2 0.4238 18.897568 9.913587 11.206884
484 162 2 0.4238 2.330257 14.370224 10.967597
485 162 1 -0.8476 2.294808 14.677147 11.881651
486 162 2 0.4238 2.919988 14.083836 12.31534
487 163 2 0.4238 12.050058 11.087334 5.196037
488 163 1 -0.8476 11.732245 10.396652 5.790097
489 163 2 0.4238 11.412047 9.731453 5.168859
490 164 2 0.4238 6.396445 9.009397 15.385729
491 164 1 -0.8476 5.607591 9.04238 15.940325
492 164 2 0.4238 4.921447 8.749999 15.328219
493 165 2 0.4238 16.308217 17.893723 14.172807
494 165 1 -0.8476 17.085508 18.459861 14.093697
495 165 2 0.4238 16.733012 19.215366 13.607989
496 166 2 0.4238 8.6546 9.576265 9.971291
497 166 1 -0.8476 8.30991 10.251061 9.373969
498 166 2 0.4238 8.559155 11.065085 9.828056
499 167 2 0.4238 1.372841 12.148948 7.744513
500 167 1 -0.8476 1.260938 11.973592 6.802344
501 167 2 0.4238 1.140337 12.862594 6.447261
502 168 2 0.4238 9.463237 7.843382 18.938316
503 168 1 -0.8476 9.515228 7.370709 18.098774
504 168 2 0.4238 10.330793 7.722809 17.722166
505 169 2 0.4238 13.286578 8.585652 8.552394
506 169 1 -0.8476 12.794522 8.095804 9.222381
507 169 2 0.4238 12.276657 7.486011 8.683009
508 170 2 0.4238 4.366442 14.215443 5.434585
509 170 1 -0.8476 4.855965 14.681337 4.745917
510 170 2 0.4238 5.327363 15.351546 5.255386
511 171 2 0.4238 16.953454 8.516947 12.108301
512 171 1 -0.8476 16.373564 8.979148 11.491007
513 171 2 0.4238 15.558387 8.467983 11.562772
514 172 2 0.4238 16.694385 15.734057 17.350965
515 172 1 -0.8476 16.090002 15.222449 17.902265
516 172 2 0.4238 16.075504 14.372383 17.446051
517 173 2 0.4238 3.640461 10.148893 17.701362
518 173 1 -0.8476 2.854761 9.975636 18.233913
519 173 2 0.4238 2.219291 9.692881 17.565197
520 174 2 0.4238 3.080749 7.248925 14.742536
521 174 1 -0.8476 3.30608 6.373105 15.078869
522 174 2 0.4238 3.495269 5.889988 14.265383
523 175 2 0.4238 3.767309 17.251321 3.00514
524 175 1 -0.8476 3.613977 16.692714 3.776763
525 175 2 0.4238 4.424161 16.169673 3.808131
526 176 2 0.4238 8.010061 6.654234 12.816447
527 176 1 -0.8476 7.732956 7.492787 12.427867
528 176 2 0.4238 7.595736 8.039475 13.210974
529 177 2 0.4238 13.936492 14.616219 4.100663
530 177 1 -0.8476 13.631398 15.461561 4.451757
531 177 2 0.4238 13.581739 15.278068 5.397705
532 178 2 0.4238 10.522111 15.309759 7.290461
533 178 1 -0.8476 10.445931 16.231871 7.016859
534 178 2 0.4238 11.337163 16.56278 7.181656
535 179 2 0.4238 8.239911 8.723136 15.030035
536 179 1 -0.8476 8.498458 7.855837 14.695521
537 179 2 0.4238 7.980854 7.264199 15.254989
538 180 2 0.4238 12.825657 18.564186 5.358908
539 180 1 -0.8476 13.6084 18.720702 5.900914
540 180 2 0.4238 14.275984 18.920644 5.233599
541 181 2 0.4238 18.006447 18.181831 18.319457
542 181 1 -0.8476 18.412669 17.487524 18.852256
543 181 2 0.4238 17.641642 17.062971 19.247509
544 182 2 0.4238 7.295494 2.121845 7.872688
545 182 1 -0.8476 7.414332 1.229761 7.524814
546 182 2 0.4238 7.914548 0.805139 8.232228
547 183 2 0.4238 6.052558 13.970286 3.520021
548 183 1 -0.8476 6.875647 13.728796 3.96179
549 183 2 0.4238 7.056736 14.515913 4.489623
550 184 2 0.4238 9.320777 12.260831 14.480361
551 184 1 -0.8476 9.697213 11.411558 14.21962
552 184 2 0.4238 10.495146 11.683148 13.750052
553 185 2 0.4238 9.745992 18.356208 8.717608
554 185 1 -0.8476 10.483431 18.957411 8.55732
555 185 2 0.4238 10.328709 19.222961 7.642717
556 186 2 0.4238 7.270076 11.58351 18.479379
557 186 1 -0.8476 6.550367 12.077958 18.068899
558 186 2 0.4238 5.961492 12.231076 18.817722
559 187 2 0.4238 6.390775 5.909739 16.597784
560 187 1 -0.8476 6.511408 6.489394 15.835943
561 187 2 0.4238 6.447446 7.36376 16.238865
562 188 2 0.4238 8.266717 16.519744 7.451121
563 188 1 -0.8476 7.404279 16.247736 7.787522
564 188 2 0.4238 6.827645 16.938226 7.438711
565 189 2 0.4238 7.089936 18.035326 9.938522
566 189 1 -0.8476 7.542108 17.741104 10.738477
567 189 2 0.4238 8.170426 17.098618 10.38722
568 190 2 0.4238 17.074329 14.519502 10.601954
569 190 1 -0.8476 16.820759 15.441262 10.732396
570 190 2 0.4238 17.527389 15.909351 10.271396
571 191 2 0.4238 2.716731 5.396336 7.525577
572 191 1 -0.8476 3.151343 4.99072 8.285539
573 191 2 0.4238 4.031385 4.805279 7.936123
574 192 2 0.4238 14.829506 16.705331 1.82885
575 192 1 -0.8476 14.681619 15.873071 2.294068
576 192 2 0.4238 14.779919 16.140079 3.216021
577 193 2 0.4238 11.929551 18.041154 6.658887
578 193 1 -0.8476 11.358698 18.010299 5.88163
579 193 2 0.4238 10.665342 18.63799 6.118727
580 194 2 0.4238 15.545625 17.216157 17.275328
581 194 1 -0.8476 15.128594 16.498517 16.783362
582 194 2 0.4238 14.280262 16.414 17.235185
583 195 2 0.4238 14.238137 6.434438 4.239293
584 195 1 -0.8476 13.780361 6.98596 4.885218
585 195 2 0.4238 13.794341 6.425929 5.67079
586 196 2 0.4238 7.265897 11.945502 7.052516
587 196 1 -0.8476 7.053998 11.411552 6.277307
588 196 2 0.4238 6.426979 10.774107 6.639889
589 197 2 0.4238 12.853243 6.264421 17.097661
590 197 1 -0.8476 12.363829 6.189804 17.925827
591 197 2 0.4238 11.457121 6.086044 17.61267
592 198 2 0.4238 17.751381 6.556455 18.545062
593 198 1 -0.8476 18.494479 6.640603 17.935409
594 198 2 0.4238 19.241387 6.717942 18.541297
595 199 2 0.4238 4.18608 9.005644 13.078961
596 199 1 -0.8476 3.954923 8.085569 12.902946
597 199 2 0.4238 3.282862 8.176857 12.216685
598 200 2 0.4238 15.167292 12.714206 14.785045
599 200 1 -0.8476 14.414243 12.606651 14.191494
600 200 2 0.4238 13.674808 12.579888 14.810746
601 201 2 0.4238 17.668713 0.745374 9.533326
602 201 1 -0.8476 16.908046 0.778259 10.125996
603 201 2 0.4238 16.170254 0.749973 9.504855
604 202 2 0.4238 5.534418 10.523601 5.118876
605 202 1 -0.8476 4.699449 10.618494 4.644772
606 202 2 0.4238 4.071699 10.232978 5.267877
607 203 2 0.4238 3.249817 12.315021 2.251795
608 203 1 -0.8476 2.493395 12.837395 2.544891
609 203 2 0.4238 2.791013 13.737334 2.364647
610 204 2 0.4238 15.933431 4.254907 18.612119
611 204 1 -0.8476 16.709531 3.751834 18.337274
612 204 2 0.4238 17.315439 3.902761 19.072836
613 205 2 0.4238 8.099366 12.13229 13.217732
614 205 1 -0.8476 7.932181 12.917802 13.752497
615 205 2 0.4238 7.771179 13.587885 13.077204
616 206 2 0.4238 19.134975 9.413962 16.285976
617 206 1 -0.8476 19.241349 8.476379 16.487411
618 206 2 0.4238 18.582471 8.07256 15.909688
619 207 2 0.4238 0.753816 6.861258 6.129199
620 207 1 -0.8476 1.435725 7.282457 5.592035
621 207 2 0.4238 1.166594 7.035464 4.698997
622 208 2 0.4238 11.855604 9.849888 3.543466
623 208 1 -0.8476 12.809556 9.911357 3.674429
624 208 2 0.4238 12.98541 9.13787 4.223743
625 209 2 0.4238 5.212794 14.102628 16.632584
626 209 1 -0.8476 4.857164 14.708975 17.29351
627 209 2 0.4238 5.660466 15.100792 17.65702
628 210 2 0.4238 1.42277 15.274913 4.091927
629 210 1 -0.8476 1.695918 14.484897 4.573817
630 210 2 0.4238 2.053254 13.934 3.866868
631 211 2 0.4238 10.024432 1.925532 0.785932
632 211 1 -0.8476 9.788866 1.595511 1.661459
633 211 2 0.4238 9.134244 0.91903 1.449806
634 212 2 0.4238 7.167119 16.471962 12.232675
635 212 1 -0.8476 6.476471 16.765434 11.626183
636 212 2 0.4238 5.750083 16.960036 12.230703
637 213 2 0.4238 3.272952 4.623832 4.678702
638 213 1 -0.8476 4.037942 4.23657 5.121162
639 213 2 0.4238 3.62052 3.65791 5.770673
640 214 2 0.4238 10.482846 4.68413 9.457338
641 214 1 -0.8476 11.433436 4.543685 9.370113
642 214 2 0.4238 11.633417 4.03519 10.165345
643 215 2 0.4238 12.050132 1.751103 19.033945
644 215 1 -0.8476 12.042068 2.490567 18.414202
645 215 2 0.4238 12.957142 2.793877 18.454147
646 216 2 0.4238 6.197677 11.560707 13.02389
647 216 1 -0.8476 6.017308 12.037946 12.20495
648 216 2 0.4238 6.289075 12.935138 12.4333
649 217 2 0.4238 6.708601 10.124066 9.877844
650 217 1 -0.8476 7.159243 10.016956 10.724249
651 217 2 0.4238 6.452643 10.210825 11.352011
652 218 2 0.4238 10.362867 4.486789 7.78329
653 218 1 -0.8476 9.951138 3.653047 7.525789
654 218 2 0.4238 9.602835 3.334658 8.367375
655 219 2 0.4238 19.238202 3.625823 8.694224
656 219 1 -0.8476 18.82564 3.798013 7.839182
657 219 2 0.4238 18.08847 4.369819 8.085293
658 220 2 0.4238 8.783136 5.900364 18.573491
659 220 1 -0.8476 9.459262 5.636979 19.209444
660 220 2 0.4238 10.143074 5.27337 18.633994
661 221 2 0.4238 9.5449 7.649045 4.71356
662 221 1 -0.8476 10.249019 8.273148 4.927253
663 221 2 0.4238 9.811546 9.121941 4.788971