ITEM: TIMESTEP
0
ITEM: NUMBER OF ATOMS
21
ITEM: BOX BOUNDS pp pp pp
0.0000000000000000e+00 6.0000000000000000e+00
0.0000000000000000e+00 6.0000000000000000e+00
0.0000000000000000e+00 6.0000000000000000e+00
ITEM: ATOMS id mol element x y z
1 1 H 4.97815 3.16031 2.51972
2 1 O 5.2204 2.39085 1.99039
3 1 H 4.83195 2.60779 1.13424
4 2 H 0.697096 5.30495 2.18881
5 2 O 1.56247 5.08309 2.55331
6 2 H 1.55494 4.11916 2.51163
7 3 H 2.68296 3.11441 1.84675
8 3 O 2.39854 3.25827 0.936055
9 3 H 2.15003 2.36719 0.661898
10 4 H 3.47451 1.95713 2.69277
11 4 O 2.88831 1.50602 2.07324
12 4 H 2.02335 1.65234 2.47496
13 5 H 2.08652 3.47073 3.93813
14 5 O 1.26129 3.19329 4.35404
15 5 H 1.32304 3.61482 5.21975
16 6 H 3.91955 2.66847 4.76448
17 6 O 3.32801 2.11229 5.28571
18 6 H 2.97916 1.51088 4.61671
19 7 H 4.92593 4.99136 2.03427
20 7 O 4.24689 5.25823 2.66565
21 7 H 3.50045 4.70762 2.39993
ITEM: TIMESTEP
50
ITEM: NUMBER OF ATOMS
21
ITEM: BOX BOUNDS pp pp pp
0.0000000000000000e+00 6.0000000000000000e+00
0.0000000000000000e+00 6.0000000000000000e+00
0.0000000000000000e+00 6.0000000000000000e+00
ITEM: ATOMS id mol element x y z
1 1 H 5.93188 3.31059 2.05208
2 1 O 5.47891 2.40418 1.98911
3 1 H 4.93079 2.51938 1.15867
4 2 H 1.15939 0.42751 2.79881
5 2 O 0.666411 5.57844 3.01756
6 2 H 1.35831 4.94753 3.32772
7 3 H 1.76281 3.40627 0.58114
8 3 O 1.94134 4.38523 0.368815
9 3 H 2.21416 4.91742 1.11012
10 4 H 3.73034 0.960511 2.19444
11 4 O 2.86427 1.25361 2.65143
12 4 H 3.16408 0.855412 3.51047
13 5 H -0.127251 3.09128 4.49382
14 5 O 0.857216 2.98167 4.36193
15 5 H 1.36958 3.77757 4.63725
16 6 H 4.78382 1.60683 3.91627
17 6 O 4.45332 1.39577 4.83651
18 6 H 3.8422 2.14291 5.02578
19 7 H 5.39683 5.06533 2.65385
20 7 O 4.46023 4.71144 2.57159
21 7 H 4.53459 3.67403 2.51897
ITEM: TIMESTEP
100
ITEM: NUMBER OF ATOMS
21
ITEM: BOX BOUNDS pp pp pp
0.0000000000000000e+00 6.0000000000000000e+00
0.0000000000000000e+00 6.0000000000000000e+00
0.0000000000000000e+00 6.0000000000000000e+00
ITEM: ATOMS id mol element x y z
1 1 H 5.49343 2.18985 2.08351
2 1 O 0.105675 1.82787 1.33995
3 1 H 5.84125 0.846111 1.42588
4 2 H 1.59405 5.75243 3.33629
5 2 O 0.631495 0.0105941 3.47402
6 2 H 0.788307 0.969462 3.65352
7 3 H 2.41144 0.189574 5.73426
8 3 O 1.80672 5.4066 0.0886062
9 3 H 2.1896 4.94297 0.881293
10 4 H 2.58294 1.20022 1.62413
11 4 O 2.82084 1.37496 2.65244
12 4 H 2.50826 2.3533 2.60162
13 5 H 1.70602 3.26594 3.79129
14 5 O 0.854957 2.9974 4.28859
15 5 H 0.610396 3.70546 4.96873
16 6 H 5.25362 5.95709 5.46855
17 6 O 4.77144 0.877322 5.37028
18 6 H 5.45509 1.66213 5.40201
19 7 H 4.02819 4.99937 2.8834
20 7 O 3.67902 4.14201 2.59053
21 7 H 4.40729 3.83683 2.00632
ITEM: TIMESTEP
150
ITEM: NUMBER OF ATOMS
21
ITEM: BOX BOUNDS pp pp pp
0.0000000000000000e+00 6.0000000000000000e+00
0.0000000000000000e+00 6.0000000000000000e+00
0.0000000000000000e+00 6.0000000000000000e+00
ITEM: ATOMS id mol element x y z
1 1 H 1.08171 2.10034 2.17702
2 1 O 0.648685 1.9193 1.22286
3 1 H 0.608656 0.875736 1.23017
4 2 H 1.00859 6.2299 4.48336
5 2 O 1.03462 5.9398 3.47498
6 2 H 0.622018 5.1061 3.16883
7 3 H 1.36084 0.886747 5.96992
8 3 O 1.52853 5.82461 5.87762
9 3 H 2.56042 5.71849 5.86708
10 4 H 2.4063 1.09238 2.89524
11 4 O 3.274 1.22198 2.28914
12 4 H 3.86175 1.62772 3.01522
13 5 H 1.04838 4.18031 3.76979
14 5 O 1.24032 3.21698 4.02441
15 5 H 1.18484 3.17442 5.0538
16 6 H 4.88418 5.64218 0.555706
17 6 O 4.10374 0.271752 0.206735
18 6 H 3.72695 0.894214 1.02105
19 7 H 2.91128 4.70333 3.2802
20 7 O 3.05766 4.33122 2.41834
21 7 H 2.15303 4.22784 1.98162
ITEM: TIMESTEP
200
ITEM: NUMBER OF ATOMS
21
ITEM: BOX BOUNDS pp pp pp
0.0000000000000000e+00 6.0000000000000000e+00
0.0000000000000000e+00 6.0000000000000000e+00
0.0000000000000000e+00 6.0000000000000000e+00
ITEM: ATOMS id mol element x y z
1 1 H 1.05528 3.4973 0.718269
2 1 O 0.695916 2.80444 1.39439
3 1 H 1.14318 3.02353 2.31013
4 2 H 0.429171 1.18068 3.35149
5 2 O 0.685685 0.302915 2.78293
6 2 H 0.874288 5.50532 3.39011
7 3 H 0.843187 5.97434 1.04413
8 3 O 0.913707 5.52379 0.104183
9 3 H 1.68212 4.87298 0.11701
10 4 H 3.39975 0.719627 2.32852
11 4 O 3.93544 1.29865 2.98239
12 4 H 4.44034 1.93876 2.4149
13 5 H 1.89957 2.10595 4.69098
14 5 O 1.16838 2.7339 4.33147
15 5 H 0.895934 3.4106 5.02694
16 6 H 4.81175 5.86409 5.27261
17 6 O 4.43831 5.55402 0.212611
18 6 H 4.88592 0.10216 0.975095
19 7 H 2.14209 5.0201 2.12627
20 7 O 2.88862 4.42067 1.93319
21 7 H 3.47983 4.6294 1.09831
ITEM: TIMESTEP
250
ITEM: NUMBER OF ATOMS
21
ITEM: BOX BOUNDS pp pp pp
0.0000000000000000e+00 6.0000000000000000e+00
0.0000000000000000e+00 6.0000000000000000e+00
0.0000000000000000e+00 6.0000000000000000e+00
ITEM: ATOMS id mol element x y z
1 1 H 5.44725 3.66007 1.53005
2 1 O 0.365585 3.22179 1.58583
3 1 H 1.08586 3.92006 1.51804
4 2 H 0.959749 1.01151 1.62152
5 2 O 0.614418 0.503319 2.44524
6 2 H 1.02149 0.910531 3.28626
7 3 H 0.445276 5.44206 0.16964
8 3 O 1.3901 5.52349 5.9007
9 3 H 1.96043 5.37474 0.675937
10 4 H 5.19529 1.53751 3.11229
11 4 O 4.26334 1.46507 3.46445
12 4 H 3.75209 2.22586 3.10908
13 5 H 1.54975 2.33488 5.32651
14 5 O 0.923962 2.09329 4.58269
15 5 H 0.307511 2.85741 4.41789
16 6 H 4.50677 0.328351 5.33209
17 6 O 4.24516 5.43697 5.76871
18 6 H 3.81521 4.81474 5.06396
19 7 H 3.11724 4.63229 2.99207
20 7 O 3.02236 4.2615 2.08169
21 7 H 3.24913 4.90519 1.31021
ITEM: TIMESTEP
300
ITEM: NUMBER OF ATOMS
21
ITEM: BOX BOUNDS pp pp pp
0.0000000000000000e+00 6.0000000000000000e+00
0.0000000000000000e+00 6.0000000000000000e+00
0.0000000000000000e+00 6.0000000000000000e+00
ITEM: ATOMS id mol element x y z
1 1 H 5.00481 3.52143 1.32163
2 1 O 5.81917 3.18606 1.78095
3 1 H 0.318508 3.95951 2.11512
4 2 H 0.77992 1.70671 1.80093
5 2 O 0.791628 0.784311 2.17421
6 2 H 0.854307 0.883037 3.12815
7 3 H 2.05853 0.137314 5.21218
8 3 O 1.56744 5.33414 5.43349
9 3 H 0.727019 5.59829 -0.170859
10 4 H 4.8625 1.84158 3.32506
11 4 O 4.10507 1.49497 3.82285
12 4 H 3.33052 1.87779 3.40393
13 5 H 0.839794 1.60106 5.7884
14 5 O 0.887706 1.91297 4.84803
15 5 H 0.440867 2.78846 4.80413
16 6 H 4.33168 0.361695 4.79778
17 6 O 4.3075 5.49473 5.31222
18 6 H 3.35112 5.09661 5.14966
19 7 H 3.80613 4.4108 3.36803
20 7 O 3.4841 4.24099 2.43205
21 7 H 3.52188 5.07976 1.82652
ITEM: TIMESTEP
350
ITEM: NUMBER OF ATOMS
21
ITEM: BOX BOUNDS pp pp pp
0.0000000000000000e+00 6.0000000000000000e+00
0.0000000000000000e+00 6.0000000000000000e+00
0.0000000000000000e+00 6.0000000000000000e+00
ITEM: ATOMS id mol element x y z
1 1 H 4.90899 3.68375 2.08251
2 1 O 5.73609 3.21852 1.75306
3 1 H 0.0351506 3.73287 0.982804
4 2 H 0.591736 1.6745 1.93597
5 2 O 1.0427 0.78299 1.98133
6 2 H 1.55871 0.727155 2.7835
7 3 H 1.41932 5.84281 5.4726
8 3 O 1.33414 4.95466 5.08064
9 3 H 0.482977 4.86771 4.61949
10 4 H 4.49084 1.95614 3.23067
11 4 O 3.69535 1.7256 3.74508
12 4 H 2.94821 2.28228 3.50585
13 5 H 0.499937 2.01371 0.0893717
14 5 O 0.958789 2.0968 5.21204
15 5 H 1.87602 2.46213 5.31584
16 6 H 4.33026 -0.0273376 4.73868
17 6 O 4.60038 5.14817 5.20166
18 6 H 5.1548 5.484 0.00356289
19 7 H 3.67545 5.1462 3.59149
20 7 O 3.5762 4.55623 2.76309
21 7 H 2.55611 4.46568 2.58006
ITEM: TIMESTEP
400
ITEM: NUMBER OF ATOMS
21
ITEM: BOX BOUNDS pp pp pp
0.0000000000000000e+00 6.0000000000000000e+00
0.0000000000000000e+00 6.0000000000000000e+00
0.0000000000000000e+00 6.0000000000000000e+00
ITEM: ATOMS id mol element x y z
1 1 H 4.8284 3.74148 2.03768
2 1 O 5.66483 3.34374 1.63175
3 1 H 5.68637 3.69047 0.703241
4 2 H 0.67368 1.55063 2.13766
5 2 O 1.24301 0.711652 2.00952
6 2 H 2.19303 0.953846 2.03127
7 3 H 1.66852 5.71996 4.68704
8 3 O 1.37046 4.75098 4.75242
9 3 H 0.364994 4.79957 4.8206
10 4 H 4.49964 1.59867 3.87203
11 4 O 3.51292 1.66379 3.74496
12 4 H 3.28819 2.59141 3.43736
13 5 H 1.35868 1.89864 0.386458
14 5 O 0.985067 1.9117 5.44
15 5 H 1.02639 2.86309 5.06977
16 6 H 3.95943 5.91051 5.03623
17 6 O 4.7317 5.4104 5.39618
18 6 H 5.08285 0.00996842 0.15569
19 7 H 3.75021 5.06545 3.63822
20 7 O 3.40084 4.60741 2.79799
21 7 H 2.70087 5.23984 2.34917
ITEM: TIMESTEP
450
ITEM: NUMBER OF ATOMS
21
ITEM: BOX BOUNDS pp pp pp
0.0000000000000000e+00 6.0000000000000000e+00
0.0000000000000000e+00 6.0000000000000000e+00
0.0000000000000000e+00 6.0000000000000000e+00
ITEM: ATOMS id mol element x y z
1 1 H 4.80746 3.78047 2.16113
2 1 O 5.5344 3.24873 1.65968
3 1 H 5.61301 3.76547 0.798512
4 2 H 0.924243 1.79283 2.27598
5 2 O 1.48742 0.91631 2.18679
6 2 H 2.257 1.01096 2.8507
7 3 H 1.64303 5.5366 4.26522
8 3 O 1.21757 4.68768 4.6752
9 3 H 0.223676 4.94257 4.8138
10 4 H 4.58466 1.38401 3.68861
11 4 O 3.60233 1.65146 3.7203
12 4 H 3.52761 2.5826 3.32636
13 5 H 1.11298 1.43755 0.17954
14 5 O 0.881169 1.76408 5.22652
15 5 H 1.01405 2.7924 5.18689
16 6 H 3.87915 -0.0256185 5.90853
17 6 O 4.83195 5.77913 5.72359
18 6 H 5.29751 0.707056 -0.33131
19 7 H 3.39252 5.38331 2.63552
20 7 O 3.38113 4.37766 2.58195
21 7 H 2.37361 4.14085 2.58354
ITEM: TIMESTEP
500
ITEM: NUMBER OF ATOMS
21
ITEM: BOX BOUNDS pp pp pp
0.0000000000000000e+00 6.0000000000000000e+00
0.0000000000000000e+00 6.0000000000000000e+00
0.0000000000000000e+00 6.0000000000000000e+00
ITEM: ATOMS id mol element x y z
1 1 H 4.77804 3.35651 1.7669
2 1 O 5.73712 3.03815 1.64281
3 1 H 6.09683 3.69933 0.964608
4 2 H 0.99375 2.14296 2.15366
5 2 O 1.54817 1.24517 2.12255
6 2 H 2.29766 1.33553 2.80656
7 3 H 1.30246 5.2979 4.1198
8 3 O 0.879907 4.54326 4.67662
9 3 H -0.0224512 4.93138 4.98538
10 4 H 4.85231 1.54836 3.44956
11 4 O 3.87884 1.71373 3.6628
12 4 H 3.74318 2.70354 3.51445
13 5 H 1.20984 1.77736 0.0421875
14 5 O 0.763551 1.76443 5.12461
15 5 H 0.620349 2.73911 4.84297
16 6 H 4.36473 0.393 5.51879
17 6 O 4.98637 5.81971 6.03753
18 6 H 5.82934 0.384111 0.160274
19 7 H 3.16871 5.21269 2.25522
20 7 O 3.09224 4.26842 2.55303
21 7 H 2.20579 4.22006 3.03383
ITEM: TIMESTEP
550
ITEM: NUMBER OF ATOMS
21
ITEM: BOX BOUNDS pp pp pp
0.0000000000000000e+00 6.0000000000000000e+00
0.0000000000000000e+00 6.0000000000000000e+00
0.0000000000000000e+00 6.0000000000000000e+00
ITEM: ATOMS id mol element x y z
1 1 H 4.67109 3.40883 1.84005
2 1 O 5.66483 3.30877 1.69685
3 1 H -0.0334595 4.26047 1.53558
4 2 H 1.10895 1.90701 1.78261
5 2 O 1.73389 1.09076 1.82528
6 2 H 2.4261 1.33003 2.50523
7 3 H 0.904655 5.50182 4.5974
8 3 O 0.695686 4.51296 4.49876
9 3 H 5.8288 4.41944 4.98439
10 4 H 5.03999 1.77918 4.1077
11 4 O 4.11 1.80577 3.72836
12 4 H 3.91808 2.74071 3.43671
13 5 H 1.38821 1.61944 5.91313
14 5 O 0.881557 1.80223 5.06886
15 5 H 0.972202 2.7782 4.86425
16 6 H 4.42229 0.0983171 5.47253
17 6 O 4.89191 5.82987 0.296152
18 6 H 5.13312 0.670822 0.79073
19 7 H 2.98936 4.80121 1.98152
20 7 O 2.94309 4.05318 2.6207
21 7 H 2.11925 4.25685 3.15126
ITEM: TIMESTEP
600
ITEM: NUMBER OF ATOMS
21
ITEM: BOX BOUNDS pp pp pp
0.0000000000000000e+00 6.0000000000000000e+00
0.0000000000000000e+00 6.0000000000000000e+00
0.0000000000000000e+00 6.0000000000000000e+00
ITEM: ATOMS id mol element x y z
1 1 H 4.84442 3.42624 2.32747
2 1 O 5.60528 3.514 1.67489
3 1 H 5.35408 4.31803 1.10622
4 2 H 1.24953 1.85261 1.87871
5 2 O 1.81784 1.07361 1.56644
6 2 H 2.72277 1.28092 1.89559
7 3 H 1.02337 5.61256 4.15596
8 3 O 0.737533 4.69639 4.46575
9 3 H 5.92992 4.88668 5.00631
10 4 H 5.22046 1.79633 4.07429
11 4 O 4.2249 1.68342 3.94964
12 4 H 3.78931 2.57962 3.856
13 5 H 1.47511 1.43943 5.75483
14 5 O 1.00981 1.68688 4.9044
15 5 H 0.961376 2.6792 4.87679
16 6 H 4.27549 0.370025 5.6921
17 6 O 4.66547 5.87924 0.469455
18 6 H 5.30954 0.493539 0.934168
19 7 H 2.89031 4.3492 1.85188
20 7 O 2.85036 3.88665 2.72976
21 7 H 1.99813 4.22391 3.14998
ITEM: TIMESTEP
650
ITEM: NUMBER OF ATOMS
21
ITEM: BOX BOUNDS pp pp pp
0.0000000000000000e+00 6.0000000000000000e+00
0.0000000000000000e+00 6.0000000000000000e+00
0.0000000000000000e+00 6.0000000000000000e+00
ITEM: ATOMS id mol element x y z
1 1 H 5.61316 3.91885 2.49484
2 1 O 5.54869 3.56221 1.55969
3 1 H 5.06753 4.28937 1.03097
4 2 H 1.41043 2.14032 1.75151
5 2 O 1.73432 1.28756 1.31138
6 2 H 2.25472 0.813118 1.99967
7 3 H 0.859966 5.93957 4.51295
8 3 O 0.83681 4.91603 4.4905
9 3 H 6.17314 4.68526 5.20183
10 4 H 5.28869 1.5956 4.377
11 4 O 4.27723 1.44103 4.24194
12 4 H 3.908 2.1993 3.67079
13 5 H 1.22455 1.52942 5.75538
14 5 O 0.963507 1.66913 4.77045
15 5 H 1.49666 2.46638 4.46983
16 6 H 4.32059 0.322 5.57525
17 6 O 4.71836 5.88838 0.41307
18 6 H 5.11713 0.630512 0.965263
19 7 H 2.92992 4.15302 2.04853
20 7 O 2.77942 3.6757 2.92259
21 7 H 2.2183 4.31031 3.51169
ITEM: TIMESTEP
700
ITEM: NUMBER OF ATOMS
21
ITEM: BOX BOUNDS pp pp pp
0.0000000000000000e+00 6.0000000000000000e+00
0.0000000000000000e+00 6.0000000000000000e+00
0.0000000000000000e+00 6.0000000000000000e+00
ITEM: ATOMS id mol element x y z
1 1 H 0.0875122 4.11165 2.41602
2 1 O 5.68546 3.66103 1.61291
3 1 H 5.23426 4.41627 1.08656
4 2 H 1.09926 2.26513 1.68506
5 2 O 1.52729 1.50434 1.15725
6 2 H 2.42786 1.33437 1.54475
7 3 H 0.995347 0.061779 4.28917
8 3 O 0.955516 5.02863 4.33688
9 3 H 0.439044 4.84038 5.17889
10 4 H 5.24386 1.59844 4.2551
11 4 O 4.23593 1.36486 4.28907
12 4 H 3.70124 2.07762 3.7862
13 5 H 1.18734 1.58743 5.54452
14 5 O 0.912019 1.70968 4.54708
15 5 H 1.67597 2.23144 4.10814
16 6 H 4.33893 0.24622 5.65164
17 6 O 4.79433 5.84004 0.486299
18 6 H 5.43951 0.532191 0.840136
19 7 H 3.44749 3.89277 3.0116
20 7 O 2.65816 3.31874 3.29526
21 7 H 1.98787 3.99911 3.72732
ITEM: TIMESTEP
750
ITEM: NUMBER OF ATOMS
21
ITEM: BOX BOUNDS pp pp pp
0.0000000000000000e+00 6.0000000000000000e+00
0.0000000000000000e+00 6.0000000000000000e+00
0.0000000000000000e+00 6.0000000000000000e+00
ITEM: ATOMS id mol element x y z
1 1 H 0.321074 4.0516 2.83132
2 1 O 5.88176 3.72614 1.97595
3 1 H 5.61925 4.56895 1.47204
4 2 H 0.759224 2.54012 1.41489
5 2 O 1.18856 1.69697 0.995217
6 2 H 1.95056 1.41357 1.5705
7 3 H 0.91101 0.0412458 4.12445
8 3 O 0.8643 5.01318 4.08961
9 3 H 0.189345 4.77905 4.79428
10 4 H 5.20681 1.29035 4.21371
11 4 O 4.21351 1.11877 4.35248
12 4 H 3.6905 1.90274 3.99336
13 5 H 0.923023 1.67936 5.39065
14 5 O 0.807067 1.65829 4.36256
15 5 H 1.54718 2.25093 4.00927
16 6 H 4.52501 0.285681 5.71049
17 6 O 5.0051 5.92855 0.549906
18 6 H 5.66909 0.627551 0.847523
19 7 H 3.41521 3.66157 2.68528
20 7 O 2.83288 3.28931 3.42337
21 7 H 2.18962 4.0402 3.68106
ITEM: TIMESTEP
800
ITEM: NUMBER OF ATOMS
21
ITEM: BOX BOUNDS pp pp pp
0.0000000000000000e+00 6.0000000000000000e+00
0.0000000000000000e+00 6.0000000000000000e+00
0.0000000000000000e+00 6.0000000000000000e+00
ITEM: ATOMS id mol element x y z
1 1 H 0.0820595 4.19708 2.94501
2 1 O 5.70526 3.79781 2.08574
3 1 H 5.44905 4.604 1.49557
4 2 H 0.29426 2.59628 1.17411
5 2 O 0.892623 1.79717 0.921122
6 2 H 1.72342 1.90636 1.46559
7 3 H 0.943125 0.0496801 4.14865
8 3 O 0.823392 5.04153 4.27997
9 3 H 0.376099 4.96668 5.17801
10 4 H 5.03103 1.10426 3.98757
11 4 O 4.11565 0.946264 4.35863
12 4 H 3.50861 1.68489 4.06591
13 5 H 0.922216 1.77322 5.20698
14 5 O 0.922438 1.67715 4.19239
15 5 H 1.49567 2.4171 3.83705
16 6 H 4.60816 0.115809 5.89214
17 6 O 5.28657 5.79141 0.586381
18 6 H 5.87067 0.589712 0.825905
19 7 H 3.97463 3.58914 2.98698
20 7 O 3.05109 3.33889 3.32282
21 7 H 2.57692 4.18954 3.56166
ITEM: TIMESTEP
850
ITEM: NUMBER OF ATOMS
21
ITEM: BOX BOUNDS pp pp pp
0.0000000000000000e+00 6.0000000000000000e+00
0.0000000000000000e+00 6.0000000000000000e+00
0.0000000000000000e+00 6.0000000000000000e+00
ITEM: ATOMS id mol element x y z
1 1 H -0.0437267 4.17627 3.13802
2 1 O 5.35534 3.79872 2.39916
3 1 H 5.20811 4.54739 1.71331
4 2 H 0.307738 2.63368 1.32107
5 2 O 0.941504 1.98242 0.850757
6 2 H 1.82844 2.04033 1.31898
7 3 H 1.19016 -0.0749448 4.25925
8 3 O 1.00217 4.94243 4.44324
9 3 H 0.432858 4.95225 5.28937
10 4 H 5.10009 1.15925 3.95633
11 4 O 4.16852 0.957852 4.29566
12 4 H 3.53999 1.66339 3.93746
13 5 H 1.02205 2.00911 5.09434
14 5 O 0.986864 1.77829 4.10154
15 5 H 1.72883 2.3109 3.66679
16 6 H 4.62258 0.0529027 5.63297
17 6 O 5.2836 5.72371 0.360153
18 6 H 5.80349 0.543703 0.651406
19 7 H 3.95921 3.46781 2.91066
20 7 O 3.02799 3.22217 3.3063
21 7 H 2.64876 4.05785 3.72652
ITEM: TIMESTEP
900
ITEM: NUMBER OF ATOMS
21
ITEM: BOX BOUNDS pp pp pp
0.0000000000000000e+00 6.0000000000000000e+00
0.0000000000000000e+00 6.0000000000000000e+00
0.0000000000000000e+00 6.0000000000000000e+00
ITEM: ATOMS id mol element x y z
1 1 H 0.0612691 4.3987 3.11562
2 1 O 5.38884 3.9998 2.46108
3 1 H 5.30834 4.66263 1.68046
4 2 H 0.291653 2.83724 1.42287
5 2 O 0.806426 2.12773 0.892412
6 2 H 1.77576 2.16766 1.16787
7 3 H 1.15307 -0.0380266 4.15057
8 3 O 1.19797 4.93792 4.25348
9 3 H 0.70721 4.75372 5.12457
10 4 H 5.36912 1.17069 4.10817
11 4 O 4.34902 1.00196 4.1442
12 4 H 3.87605 1.78731 3.70115
13 5 H 0.830345 1.81142 5.25114
14 5 O 0.839538 1.47986 4.27592
15 5 H 1.54011 2.04348 3.79273
16 6 H 4.80664 -0.0663004 5.66806
17 6 O 5.3986 5.72397 0.482579
18 6 H 5.89465 0.577394 0.712058
19 7 H 3.64495 3.57224 2.90359
20 7 O 2.7779 3.13265 3.25714
21 7 H 2.21145 3.88874 3.65875
ITEM: TIMESTEP
950
ITEM: NUMBER OF ATOMS
21
ITEM: BOX BOUNDS pp pp pp
0.0000000000000000e+00 6.0000000000000000e+00
0.0000000000000000e+00 6.0000000000000000e+00
0.0000000000000000e+00 6.0000000000000000e+00
ITEM: ATOMS id mol element x y z
1 1 H 5.89531 4.22258 3.14468
2 1 O 5.23293 3.9926 2.41403
3 1 H 5.20928 4.77717 1.77076
4 2 H 5.99319 2.90605 1.43759
5 2 O 0.700367 2.25429 1.0834
6 2 H 1.48035 2.29644 1.73043
7 3 H 1.3173 5.78345 4.16747
8 3 O 1.14799 4.78523 4.27361
9 3 H 0.663484 4.71101 5.16477
10 4 H 5.18004 1.14031 4.03037
11 4 O 4.21577 0.847099 4.18878
12 4 H 3.60548 1.48731 3.6954
13 5 H 1.10761 1.95566 5.3722
14 5 O 1.09308 1.62078 4.40695
15 5 H 1.72214 2.22418 3.88439
16 6 H 4.88545 0.106328 5.65118
17 6 O 5.51625 5.87241 0.421149
18 6 H 6.02977 0.714889 0.648989
19 7 H 3.80374 3.34593 2.65994
20 7 O 2.86134 3.03529 2.95923
21 7 H 2.42796 3.83477 3.41133
ITEM: TIMESTEP
1000
ITEM: NUMBER OF ATOMS
21
ITEM: BOX BOUNDS pp pp pp
0.0000000000000000e+00 6.0000000000000000e+00
0.0000000000000000e+00 6.0000000000000000e+00
0.0000000000000000e+00 6.0000000000000000e+00
ITEM: ATOMS id mol element x y z
1 1 H 5.72846 4.45746 3.11492
2 1 O 5.18258 4.14769 2.32292
3 1 H 5.19423 4.89514 1.62191
4 2 H 6.07988 2.80958 1.49196
5 2 O 0.833598 2.22018 1.13448
6 2 H 1.64625 2.38082 1.7385
7 3 H 1.30082 5.7687 4.16954
8 3 O 1.06227 4.7896 4.28446
9 3 H 0.590143 4.76002 5.18634
10 4 H 5.32181 1.17669 4.08551
11 4 O 4.38277 0.816531 4.24666
12 4 H 3.73124 1.34685 3.70135
13 5 H 1.12342 1.91416 5.43346
14 5 O 1.03809 1.5584 4.4827
15 5 H 1.68231 2.09009 3.91215
16 6 H 4.91124 0.186502 5.70777
17 6 O 5.51681 5.87108 0.466248
18 6 H 6.09755 0.660582 0.733687
19 7 H 3.68139 3.34617 2.55518
20 7 O 2.74891 3.00112 2.8119
21 7 H 2.27516 3.76284 3.28226
ITEM: TIMESTEP
1050
ITEM: NUMBER OF ATOMS
21
ITEM: BOX BOUNDS pp pp pp
0.0000000000000000e+00 6.0000000000000000e+00
0.0000000000000000e+00 6.0000000000000000e+00
0.0000000000000000e+00 6.0000000000000000e+00
ITEM: ATOMS id mol element x y z
1 1 H 5.7878 4.25024 3.12129
2 1 O 5.19163 3.91283 2.36622
3 1 H 5.26017 4.6015 1.59898
4 2 H 6.09013 2.78718 1.48718
5 2 O 0.824569 2.21755 1.05218
6 2 H 1.67848 2.39907 1.58031
7 3 H 1.23102 5.80302 4.13292
8 3 O 1.02872 4.80437 4.20435
9 3 H 0.672246 4.68803 5.14955
10 4 H 5.44181 1.18775 4.12714
11 4 O 4.45092 0.955875 4.16452
12 4 H 3.95067 1.64168 3.63116
13 5 H 1.02112 1.88453 5.34247
14 5 O 1.06855 1.50595 4.40057
15 5 H 1.80012 2.03343 3.92288
16 6 H 4.91647 0.187127 5.75848
17 6 O 5.49003 5.881 0.540888
18 6 H 6.11386 0.656955 0.780455
19 7 H 3.60003 3.55618 2.78844
20 7 O 2.69299 3.12842 3.01609
21 7 H 2.07955 3.85673 3.38559
ITEM: TIMESTEP
1100
ITEM: NUMBER OF ATOMS
21
ITEM: BOX BOUNDS pp pp pp
0.0000000000000000e+00 6.0000000000000000e+00
0.0000000000000000e+00 6.0000000000000000e+00
0.0000000000000000e+00 6.0000000000000000e+00
ITEM: ATOMS id mol element x y z
1 1 H 5.76713 4.25843 3.14312
2 1 O 5.23437 3.84908 2.37303
3 1 H 5.16602 4.58182 1.64154
4 2 H 6.16909 2.73303 1.43828
5 2 O 0.903087 2.20181 0.966103
6 2 H 1.73607 2.30412 1.53445
7 3 H 1.05428 5.89433 4.19158
8 3 O 0.910874 4.87884 4.26156
9 3 H 0.503787 4.73982 5.18458
10 4 H 5.36117 1.33636 4.06717
11 4 O 4.38816 1.06291 4.18153
12 4 H 3.81377 1.74148 3.70086
13 5 H 1.05897 1.83231 5.30726
14 5 O 1.13528 1.48442 4.35148
15 5 H 1.81288 2.09731 3.88386
16 6 H 4.8579 0.124402 5.72953
17 6 O 5.37828 5.78815 0.537893
18 6 H 5.94032 0.569096 0.876305
19 7 H 3.74666 3.48763 2.77492
20 7 O 2.82238 3.13484 3.07069
21 7 H 2.25823 3.92768 3.37346
ITEM: TIMESTEP
1150
ITEM: NUMBER OF ATOMS
21
ITEM: BOX BOUNDS pp pp pp
0.0000000000000000e+00 6.0000000000000000e+00
0.0000000000000000e+00 6.0000000000000000e+00
0.0000000000000000e+00 6.0000000000000000e+00
ITEM: ATOMS id mol element x y z
1 1 H 5.92137 4.30872 3.04871
2 1 O 5.37242 3.94199 2.27658
3 1 H 5.25761 4.69991 1.58864
4 2 H 6.23913 2.67851 1.3915
5 2 O 0.977576 2.09426 1.01291
6 2 H 1.78013 2.23684 1.61018
7 3 H 1.17285 5.76506 4.22561
8 3 O 0.905179 4.78612 4.31179
9 3 H 0.286456 4.77953 5.12223
10 4 H 5.3482 1.39248 4.20146
11 4 O 4.37895 1.08391 4.33913
12 4 H 3.77212 1.7302 3.848
13 5 H 1.09844 1.82452 5.32152
14 5 O 1.00968 1.54425 4.34431
15 5 H 1.67063 2.12477 3.82135
16 6 H 4.76608 0.258917 5.67205
17 6 O 5.31582 5.8442 0.428799
18 6 H 5.90834 0.579859 0.802218
19 7 H 3.70092 3.46939 2.68493
20 7 O 2.81601 3.09944 3.03456
21 7 H 2.27315 3.87259 3.41648
ITEM: TIMESTEP
1200
ITEM: NUMBER OF ATOMS
21
ITEM: BOX BOUNDS pp pp pp
0.0000000000000000e+00 6.0000000000000000e+00
0.0000000000000000e+00 6.0000000000000000e+00
0.0000000000000000e+00 6.0000000000000000e+00
ITEM: ATOMS id mol element x y z
1 1 H 5.88445 4.15604 2.97384
2 1 O 5.30366 3.85799 2.20108
3 1 H 5.34146 4.60817 1.49839
4 2 H 6.21306 2.62834 1.45603
5 2 O 0.945243 2.01664 1.09926
6 2 H 1.77499 2.22415 1.64247
7 3 H 1.15933 5.8196 4.15745
8 3 O 1.04376 4.81255 4.25767
9 3 H 0.656096 4.69578 5.18669
10 4 H 5.20945 1.41414 4.23857
11 4 O 4.22217 1.16646 4.3196
12 4 H 3.68774 1.86738 3.8081
13 5 H 1.13068 1.75062 5.34017
14 5 O 0.967729 1.5382 4.35791
15 5 H 1.68006 2.03779 3.82906
16 6 H 4.81008 0.286613 5.79728
17 6 O 5.42162 5.91229 0.514379
18 6 H 6.05987 0.65753 0.797173
19 7 H 3.72653 3.4495 2.62171
20 7 O 2.84092 3.10468 2.99766
21 7 H 2.34619 3.89305 3.41615
ITEM: TIMESTEP
1250
ITEM: NUMBER OF ATOMS
21
ITEM: BOX BOUNDS pp pp pp
0.0000000000000000e+00 6.0000000000000000e+00
0.0000000000000000e+00 6.0000000000000000e+00
0.0000000000000000e+00 6.0000000000000000e+00
ITEM: ATOMS id mol element x y z
1 1 H 5.87819 4.24922 3.05106
2 1 O 5.29276 3.88338 2.30189
3 1 H 5.24867 4.63309 1.59153
4 2 H 6.23422 2.6358 1.53009
5 2 O 0.972322 2.0861 1.08018
6 2 H 1.80925 2.24198 1.64337
7 3 H 1.16684 5.88009 4.05769
8 3 O 1.08052 4.86411 4.09607
9 3 H 0.650828 4.6864 4.99896
10 4 H 5.2595 1.38336 4.31435
11 4 O 4.27482 1.14046 4.42026
12 4 H 3.73166 1.80665 3.88036
13 5 H 1.10727 1.80162 5.37262
14 5 O 0.952719 1.56096 4.39011
15 5 H 1.64502 2.07367 3.84703
16 6 H 4.83126 0.17122 5.76805
17 6 O 5.43847 5.8062 0.500016
18 6 H 6.04014 0.57282 0.803094
19 7 H 3.66982 3.39188 2.66365
20 7 O 2.7438 3.07264 2.95292
21 7 H 2.24377 3.88081 3.33822
ITEM: TIMESTEP
1300
ITEM: NUMBER OF ATOMS
21
ITEM: BOX BOUNDS pp pp pp
0.0000000000000000e+00 6.0000000000000000e+00
0.0000000000000000e+00 6.0000000000000000e+00
0.0000000000000000e+00 6.0000000000000000e+00
ITEM: ATOMS id mol element x y z
1 1 H 5.81932 4.25937 3.0637
2 1 O 5.19974 3.87089 2.34957
3 1 H 5.20445 4.56073 1.58095
4 2 H 6.18195 2.71029 1.48278
5 2 O 0.89202 2.14016 1.01424
6 2 H 1.74546 2.25235 1.56115
7 3 H 1.16045 5.94079 4.03114
8 3 O 1.03045 4.9308 4.10374
9 3 H 0.553173 4.81618 4.99535
10 4 H 5.28945 1.43205 4.33409
11 4 O 4.33886 1.11532 4.49143
12 4 H 3.72789 1.6784 3.90917
13 5 H 1.02295 1.90359 5.36449
14 5 O 0.999722 1.62044 4.37849
15 5 H 1.6833 2.19274 3.88379
16 6 H 4.89783 0.0832782 5.71635
17 6 O 5.50461 5.69494 0.442823
18 6 H 6.08146 0.467639 0.77509
19 7 H 3.71822 3.3344 2.63102
20 7 O 2.7977 3.03491 2.97687
21 7 H 2.30835 3.87829 3.28186
ITEM: TIMESTEP
1350
ITEM: NUMBER OF ATOMS
21
ITEM: BOX BOUNDS pp pp pp
0.0000000000000000e+00 6.0000000000000000e+00
0.0000000000000000e+00 6.0000000000000000e+00
0.0000000000000000e+00 6.0000000000000000e+00
ITEM: ATOMS id mol element x y z
1 1 H 5.86446 4.19576 3.05301
2 1 O 5.25116 3.88064 2.30056
3 1 H 5.34103 4.58779 1.56277
4 2 H 6.1125 2.68854 1.4522
5 2 O 0.841559 2.09708 1.05295
6 2 H 1.6674 2.26429 1.61867
7 3 H 1.13072 5.89085 4.01812
8 3 O 0.999793 4.88922 4.14892
9 3 H 0.597204 4.83194 5.08259
10 4 H 5.2799 1.41856 4.26714
11 4 O 4.32722 1.12095 4.44185
12 4 H 3.71039 1.72823 3.9134
13 5 H 0.979485 1.88596 5.31895
14 5 O 0.967214 1.60447 4.33597
15 5 H 1.65604 2.17961 3.84814
16 6 H 4.95267 0.0671275 5.74913
17 6 O 5.63418 5.70572 0.416856
18 6 H 6.17327 0.510996 0.735343
19 7 H 3.63423 3.44684 2.67828
20 7 O 2.74538 3.10317 3.05286
21 7 H 2.24095 3.91209 3.42749
ITEM: TIMESTEP
1400
ITEM: NUMBER OF ATOMS
21
ITEM: BOX BOUNDS pp pp pp
0.0000000000000000e+00 6.0000000000000000e+00
0.0000000000000000e+00 6.0000000000000000e+00
0.0000000000000000e+00 6.0000000000000000e+00
ITEM: ATOMS id mol element x y z
1 1 H 5.83918 4.23012 3.06951
2 1 O 5.25703 3.92959 2.28809
3 1 H 5.31638 4.67684 1.59252
4 2 H 6.1827 2.5638 1.49605
5 2 O 0.946545 2.0351 1.09106
6 2 H 1.76291 2.27868 1.63958
7 3 H 1.12571 5.8761 4.04362
8 3 O 1.00374 4.87357 4.16599
9 3 H 0.558158 4.80719 5.07701
10 4 H 5.23135 1.30303 4.20403
11 4 O 4.25887 1.0885 4.40269
12 4 H 3.68746 1.77359 3.91671
13 5 H 1.01683 1.83342 5.33007
14 5 O 0.941389 1.57368 4.3437
15 5 H 1.64868 2.10778 3.838
16 6 H 4.88187 0.148309 5.76743
17 6 O 5.58214 5.76947 0.408899
18 6 H 6.15535 0.551968 0.719236
19 7 H 3.68396 3.47874 2.71478
20 7 O 2.77463 3.13475 3.04004
21 7 H 2.28416 3.92494 3.4671
ITEM: TIMESTEP
1450
ITEM: NUMBER OF ATOMS
21
ITEM: BOX BOUNDS pp pp pp
0.0000000000000000e+00 6.0000000000000000e+00
0.0000000000000000e+00 6.0000000000000000e+00
0.0000000000000000e+00 6.0000000000000000e+00
ITEM: ATOMS id mol element x y z
1 1 H 5.88854 4.20343 3.03655
2 1 O 5.27983 3.87004 2.28388
3 1 H 5.31855 4.59193 1.55423
4 2 H 6.26071 2.66785 1.49426
5 2 O 0.993977 2.09402 1.08395
6 2 H 1.81995 2.26507 1.64901
7 3 H 1.12724 5.90412 4.09889
8 3 O 1.00982 4.89606 4.17037
9 3 H 0.541464 4.77195 5.06004
10 4 H 5.23872 1.3508 4.20297
11 4 O 4.27174 1.085 4.37483
12 4 H 3.68132 1.73475 3.86003
13 5 H 1.03616 1.86865 5.37873
14 5 O 0.964668 1.62763 4.38459
15 5 H 1.68927 2.15197 3.89096
16 6 H 4.79924 0.163866 5.70244
17 6 O 5.4146 5.79264 0.438415
18 6 H 5.99755 0.565354 0.750858
19 7 H 3.73387 3.36136 2.65961
20 7 O 2.82238 3.04468 3.0132
21 7 H 2.35863 3.86752 3.39794
ITEM: TIMESTEP
1500
ITEM: NUMBER OF ATOMS
21
ITEM: BOX BOUNDS pp pp pp
0.0000000000000000e+00 6.0000000000000000e+00
0.0000000000000000e+00 6.0000000000000000e+00
0.0000000000000000e+00 6.0000000000000000e+00
ITEM: ATOMS id mol element x y z
1 1 H 5.92597 4.20373 3.02399
2 1 O 5.31585 3.845 2.2805
3 1 H 5.28369 4.59156 1.57178
4 2 H 6.23066 2.70149 1.48455
5 2 O 0.924527 2.09075 1.04208
6 2 H 1.77504 2.21475 1.58323
7 3 H 1.12625 5.89389 4.1003
8 3 O 1.02085 4.88139 4.13832
9 3 H 0.546614 4.71864 5.01717
10 4 H 5.31889 1.37106 4.17903
11 4 O 4.35143 1.09219 4.33065
12 4 H 3.76355 1.71145 3.78357
13 5 H 1.00611 1.82192 5.41591
14 5 O 0.964531 1.60939 4.41244
15 5 H 1.68432 2.16557 3.95119
16 6 H 4.81446 0.162194 5.73361
17 6 O 5.37426 5.81479 0.520652
18 6 H 5.90523 0.611576 0.868231
19 7 H 3.6994 3.40764 2.63838
20 7 O 2.81132 3.07658 3.02454
21 7 H 2.31944 3.8929 3.38652
ITEM: TIMESTEP
1550
ITEM: NUMBER OF ATOMS
21
ITEM: BOX BOUNDS pp pp pp
0.0000000000000000e+00 6.0000000000000000e+00
0.0000000000000000e+00 6.0000000000000000e+00
0.0000000000000000e+00 6.0000000000000000e+00
ITEM: ATOMS id mol element x y z
1 1 H 5.83038 4.25223 3.07567
2 1 O 5.2489 3.90519 2.30853
3 1 H 5.22529 4.65765 1.61363
4 2 H 6.18544 2.65592 1.51188
5 2 O 0.899108 2.05342 1.09563
6 2 H 1.75203 2.25853 1.6097
7 3 H 1.14916 5.88515 4.08746
8 3 O 1.01233 4.8762 4.17669
9 3 H 0.568431 4.76933 5.08038
10 4 H 5.30123 1.29154 4.12982
11 4 O 4.3329 1.06173 4.32003
12 4 H 3.76133 1.70233 3.78674
13 5 H 1.11745 1.75919 5.32633
14 5 O 1.0628 1.54088 4.33297
15 5 H 1.73614 2.13758 3.85043
16 6 H 4.83292 0.180363 5.72009
17 6 O 5.41633 5.84966 0.491802
18 6 H 5.96065 0.651124 0.80946
19 7 H 3.68561 3.47077 2.67742
20 7 O 2.79024 3.11622 3.02432
21 7 H 2.29599 3.90455 3.44573
ITEM: TIMESTEP
1600
ITEM: NUMBER OF ATOMS
21
ITEM: BOX BOUNDS pp pp pp
0.0000000000000000e+00 6.0000000000000000e+00
0.0000000000000000e+00 6.0000000000000000e+00
0.0000000000000000e+00 6.0000000000000000e+00
ITEM: ATOMS id mol element x y z
1 1 H 5.84138 4.279 3.0771
2 1 O 5.2448 3.96759 2.30823
3 1 H 5.31238 4.68354 1.5796
4 2 H 6.1535 2.71896 1.46072
5 2 O 0.886655 2.11704 1.08488
6 2 H 1.72082 2.34443 1.62336
7 3 H 1.16617 5.81329 4.17907
8 3 O 0.971784 4.81252 4.24581
9 3 H 0.511524 4.71356 5.14377
10 4 H 5.3512 1.29417 4.17686
11 4 O 4.36368 1.0787 4.297
12 4 H 3.84035 1.78317 3.79403
13 5 H 1.10809 1.7918 5.36692
14 5 O 1.04164 1.53147 4.38464
15 5 H 1.72458 2.09125 3.87244
16 6 H 4.87361 0.134797 5.66971
17 6 O 5.48057 5.80059 0.419867
18 6 H 6.03572 0.597239 0.721404
19 7 H 3.64494 3.49759 2.66724
20 7 O 2.76504 3.09476 3.00413
21 7 H 2.25192 3.84321 3.47859
ITEM: TIMESTEP
1650
ITEM: NUMBER OF ATOMS
21
ITEM: BOX BOUNDS pp pp pp
0.0000000000000000e+00 6.0000000000000000e+00
0.0000000000000000e+00 6.0000000000000000e+00
0.0000000000000000e+00 6.0000000000000000e+00
ITEM: ATOMS id mol element x y z
1 1 H 5.81763 4.23276 3.08646
2 1 O 5.21693 3.92243 2.32118
3 1 H 5.2482 4.66106 1.60892
4 2 H 6.11533 2.73442 1.47681
5 2 O 0.861915 2.1835 1.04983
6 2 H 1.68433 2.35306 1.62555
7 3 H 1.19509 5.80462 4.18124
8 3 O 1.00566 4.80146 4.22637
9 3 H 0.531876 4.6884 5.11519
10 4 H 5.35115 1.33091 4.11357
11 4 O 4.36953 1.10114 4.27702
12 4 H 3.80691 1.76303 3.75338
13 5 H 1.08689 1.82037 5.41361
14 5 O 1.03735 1.53413 4.43549
15 5 H 1.7073 2.10404 3.91668
16 6 H 4.89249 0.161426 5.70014