LAMMPS Description

  3000 atoms
  4 atom types
  -11.052 11.052 xlo xhi
  -10.635 10.635 ylo yhi
  -31.696 31.696 zlo zhi


Masses

1 1.008 # H
2 15.999 # O
3 22.99 # Na
4 12.011 # C

Atoms

1 3 0.0 -7.772187 6.914402 -23.309135
2 3 0.0 -9.802 9.385 -24.695065
3 3 0.0 -4.228085 6.693534 -24.45872
4 2 0.0 -4.266688 -3.976696 -26.860049
5 1 0.0 -4.237407 -4.00409 -27.825216
6 2 0.0 -2.716207 -1.999996 -30.445838
7 1 0.0 -2.765777 -1.210135 -29.891925
8 2 0.0 6.613701 -9.357245 -23.593097
9 1 0.0 6.605636 -9.385791 -22.627552
10 1 0.0 6.902065 2.152877 -30.445922
11 2 0.0 6.184938 2.798145 -30.428279
12 1 0.0 6.375192 3.285201 -29.617394
13 1 0.0 9.590771 -3.071113 -24.050396
14 2 0.0 9.590438 -2.209237 -24.484128
15 1 0.0 9.802009 -1.617686 -23.751831
16 1 0.0 -1.580015 5.102081 -25.05103
17 2 0.0 -1.631584 5.803304 -24.390287
18 1 0.0 -1.521096 6.594831 -24.930872
19 1 0.0 4.97172 9.286663 -30.445923
20 2 0.0 4.912978 9.384988 -29.487886
21 1 0.0 3.962191 9.316636 -29.3386
22 1 0.0 5.548718 6.858468 -29.59621
23 2 0.0 6.088583 6.807185 -30.394251
24 1 0.0 6.278759 5.862652 -30.445681
25 1 0.0 7.079333 6.377156 -21.829872
26 2 0.0 6.130676 6.201322 -21.82057
27 1 0.0 6.106178 5.238059 -21.870348
28 1 0.0 -9.767426 -7.407572 -23.005277
29 2 0.0 -9.754888 -8.1466 -22.385087
30 1 0.0 -9.756446 -8.906059 -22.980211
31 1 0.0 1.482521 2.300971 -21.865786
32 2 0.0 1.99874 1.517009 -22.089114
33 1 0.0 1.316657 0.913558 -22.407805
34 1 0.0 4.30086 0.869282 -24.457117
35 2 0.0 3.66263 0.732333 -25.167653
36 1 0.0 2.823026 0.841993 -24.705058
37 1 0.0 9.048355 -9.026792 -23.019418
38 2 0.0 9.806008 -9.201126 -23.590841
39 1 0.0 9.379428 -9.386124 -24.436275
40 1 0.0 8.812599 4.069979 -30.446
41 2 0.0 9.762535 4.134031 -30.289561
42 1 0.0 9.802 4.199536 -29.327737
43 1 0.0 -3.29253 3.685505 -29.49324
44 2 0.0 -3.260553 3.891421 -30.435329
45 1 0.0 -3.530834 4.817589 -30.446031
46 1 0.0 9.798881 -9.372572 -27.18514
47 2 0.0 9.546499 -8.76321 -27.889366
48 1 0.0 8.759411 -9.189758 -28.249232
49 1 0.0 9.798663 -3.171516 -30.443246
50 2 0.0 9.79543 -2.206666 -30.446
51 1 0.0 9.540386 -2.005775 -29.537403
52 1 0.0 3.854194 5.643253 -27.879396
53 2 0.0 4.679736 5.601892 -27.381678
54 1 0.0 5.133145 4.865099 -27.808891
55 1 0.0 -7.191389 -9.385 -25.1823
56 2 0.0 -7.093752 -8.427884 -25.255438
57 1 0.0 -7.754961 -8.111719 -24.627907
58 1 0.0 -7.547366 -2.781892 -24.850936
59 2 0.0 -7.17722 -2.034423 -25.335946
60 1 0.0 -6.232055 -2.226078 -25.306171
61 1 0.0 -6.536973 -7.670039 -27.826534
62 2 0.0 -7.23334 -8.129538 -28.311186
63 1 0.0 -7.174293 -9.021142 -27.94717
64 1 0.0 2.340543 -5.000745 -21.862954
65 2 0.0 1.961892 -4.129135 -21.696
66 1 0.0 1.972413 -3.735394 -22.576801
67 1 0.0 8.55247 9.356164 -26.995453
68 2 0.0 9.511466 9.384979 -26.893231
69 1 0.0 9.801724 8.747554 -27.556853
70 1 0.0 -8.612857 9.381982 -30.42343
71 2 0.0 -9.576232 9.333493 -30.446
72 1 0.0 -9.800233 9.384957 -29.508915
73 1 0.0 -0.03631 5.324797 -27.315303
74 2 0.0 0.39387 4.462118 -27.27427
75 1 0.0 1.323875 4.698315 -27.375541
76 1 0.0 -9.32716 3.396389 -27.05532
77 2 0.0 -9.802 4.187809 -27.33663
78 1 0.0 -9.129396 4.651762 -27.849764
79 1 0.0 3.382983 3.00821 -30.427549
80 2 0.0 3.664489 3.701982 -29.818954
81 1 0.0 3.945688 4.3973 -30.425924
82 1 0.0 -6.989362 -4.037333 -27.230377
83 2 0.0 -6.83254 -4.961156 -27.460405
84 1 0.0 -7.51736 -5.120905 -28.121052
85 1 0.0 -4.736156 -6.311002 -25.485999
86 2 0.0 -5.650612 -6.130483 -25.236728
87 1 0.0 -5.575191 -5.26575 -24.815418
88 1 0.0 9.801935 3.167006 -21.856222
89 2 0.0 9.18946 3.592295 -22.468559
90 1 0.0 8.488996 3.889529 -21.8753
91 1 0.0 -1.24737 -9.384752 -23.309364
92 2 0.0 -0.526585 -8.952538 -22.835428
93 1 0.0 -0.61405 -9.33071 -21.952088
94 1 0.0 -6.390385 -6.779115 -22.66999
95 2 0.0 -6.625383 -6.579987 -21.755617
96 1 0.0 -7.572179 -6.408105 -21.826233
97 1 0.0 -1.281168 9.153105 -28.030762
98 2 0.0 -2.030933 9.384996 -28.592039
99 1 0.0 -2.398754 8.517887 -28.801288
100 1 0.0 -3.524126 -6.526261 -27.719131
101 2 0.0 -2.710065 -6.541498 -27.201419
102 1 0.0 -2.03952 -6.643558 -27.887645
103 1 0.0 6.933254 1.345989 -25.449195
104 2 0.0 6.947555 1.590925 -24.516052
105 1 0.0 7.210256 2.518402 -24.557608
106 1 0.0 -0.036624 9.382917 -30.435861
107 2 0.0 0.7168 9.175298 -29.87
108 1 0.0 1.462077 9.38444 -30.446
109 1 0.0 8.792377 0.778982 -22.708143
110 2 0.0 8.921749 0.522933 -21.786919
111 1 0.0 9.801682 0.127891 -21.811708
112 1 0.0 7.535349 -7.258712 -21.696536
113 2 0.0 7.045974 -6.427252 -21.708391
114 1 0.0 7.340938 -6.034382 -22.538814
115 1 0.0 7.648051 -7.800904 -25.296096
116 2 0.0 7.131451 -7.190244 -24.756492
117 1 0.0 6.616019 -6.721676 -25.424121
118 1 0.0 -1.799966 -8.200938 -25.568066
119 2 0.0 -2.107668 -7.558579 -24.917183
120 1 0.0 -1.282827 -7.135584 -24.64948
121 1 0.0 -9.802 9.384999 -21.849351
122 2 0.0 -9.181942 8.647838 -21.904803
123 1 0.0 -9.773458 7.886614 -21.864779
124 1 0.0 -8.274875 0.658304 -27.52466
125 2 0.0 -7.971883 -0.209135 -27.230214
126 1 0.0 -7.013893 -0.121114 -27.304109
127 1 0.0 9.733251 -4.942073 -27.852551
128 2 0.0 9.8019 -3.980057 -27.88023
129 1 0.0 9.691126 -3.745674 -26.95085
130 1 0.0 3.336328 -4.121312 -27.973763
131 2 0.0 2.566447 -4.068814 -27.394556
132 1 0.0 2.046133 -4.827426 -27.685649
133 1 0.0 5.004014 -6.34534 -23.553223
134 2 0.0 4.048714 -6.210227 -23.563215
135 1 0.0 3.821741 -6.459705 -24.467204
136 1 0.0 -1.776714 6.737756 -30.442644
137 2 0.0 -0.813049 6.785645 -30.445986
138 1 0.0 -0.613925 6.856834 -29.504585
139 1 0.0 -9.801877 3.741536 -21.860728
140 2 0.0 -9.189709 4.486325 -21.899369
141 1 0.0 -9.790841 5.240227 -21.864356
142 1 0.0 0.064206 9.384795 -24.050427
143 2 0.0 -0.542033 9.064096 -24.729088
144 1 0.0 -0.108864 9.359861 -25.538928
145 1 0.0 4.814053 3.550528 -25.415019
146 2 0.0 3.898578 3.508562 -25.113194
147 1 0.0 3.411511 3.641427 -25.935427
148 1 0.0 -9.791048 1.437322 -23.956773
149 2 0.0 -9.667895 1.93611 -24.773472
150 1 0.0 -9.794665 1.25428 -25.444286
151 1 0.0 -3.086385 -5.428898 -23.472631
152 2 0.0 -3.724814 -5.213316 -22.782061
153 1 0.0 -3.150657 -4.916683 -22.065607
154 1 0.0 -5.943692 8.515527 -21.722309
155 2 0.0 -5.442556 8.053558 -22.405244
156 1 0.0 -4.825314 7.530306 -21.879723
157 1 0.0 -3.74157 3.513177 -21.967691
158 2 0.0 -3.0528 4.131832 -21.696
159 1 0.0 -3.123534 4.817621 -22.371013
160 1 0.0 8.428977 -0.677846 -26.437738
161 2 0.0 8.987538 -0.637926 -27.223467
162 1 0.0 9.801909 -1.049629 -26.910014
163 1 0.0 0.713396 -6.57982 -30.44598
164 2 0.0 0.484579 -5.653153 -30.304965
165 1 0.0 0.312545 -5.632715 -29.355786
166 1 0.0 -4.420023 -8.985808 -25.263253
167 2 0.0 -4.535 -8.970815 -24.305386
168 1 0.0 -3.718545 -9.384672 -24.000301
169 1 0.0 7.645351 5.210996 -24.248721
170 2 0.0 7.245874 5.777983 -24.919464
171 1 0.0 7.452871 6.658874 -24.584595
172 1 0.0 7.613719 -3.540833 -21.839657
173 2 0.0 8.383838 -2.960074 -21.86396
174 1 0.0 7.987394 -2.096499 -21.696551
175 1 0.0 7.274062 -1.089601 -24.009816
176 2 0.0 6.42218 -0.938785 -23.582611
177 1 0.0 6.048534 -1.828163 -23.563927
178 1 0.0 9.801992 6.805311 -23.20869
179 2 0.0 9.764712 7.117019 -22.296329
180 1 0.0 9.799532 6.289414 -21.801546
181 1 0.0 -9.317336 -0.411636 -30.445762
182 2 0.0 -9.788916 -1.136543 -30.017889
183 1 0.0 -9.802 -0.84945 -29.096825
184 1 0.0 2.933052 -1.244708 -21.887729
185 2 0.0 3.587234 -0.958234 -22.536522
186 1 0.0 3.332796 -1.468803 -23.314683
187 1 0.0 -4.629598 -0.087664 -24.331741
188 2 0.0 -4.469115 0.78007 -24.721917
189 1 0.0 -4.449078 1.348315 -23.942398
190 1 0.0 -9.714159 2.586936 -30.445999
191 2 0.0 -9.786607 2.792128 -29.505999
192 1 0.0 -9.773776 1.912964 -29.108682
193 1 0.0 7.694624 9.358612 -30.445775
194 2 0.0 8.282583 9.328489 -29.681347
195 1 0.0 9.152185 9.371736 -30.09713
196 1 0.0 -7.567693 -2.182803 -28.987048
197 2 0.0 -7.431576 -2.95339 -29.551512
198 1 0.0 -7.649962 -2.602637 -30.423426
199 1 0.0 1.861691 -7.8866 -22.307683
200 2 0.0 1.794347 -8.629413 -21.695598
201 1 0.0 1.874257 -9.385181 -22.290059
202 1 0.0 -9.79144 -3.910685 -21.794934
203 2 0.0 -9.668234 -4.801983 -22.143304
204 1 0.0 -9.787011 -4.66366 -23.090781
205 1 0.0 7.503851 -2.812472 -27.898817
206 2 0.0 7.020564 -3.442433 -28.447029
207 1 0.0 7.211673 -4.278601 -28.005154
208 1 0.0 -2.977776 -9.360475 -27.751302
209 2 0.0 -3.633165 -9.367323 -28.459379
210 1 0.0 -4.461273 -9.353985 -27.96439
211 1 0.0 -0.654398 -0.936098 -21.902432
212 2 0.0 -1.374145 -1.574922 -21.832999
213 1 0.0 -0.902275 -2.414179 -21.895771
214 1 0.0 -0.482673 4.087639 -22.577851
215 2 0.0 -0.283506 4.561313 -21.7612
216 1 0.0 0.59697 4.911234 -21.943602
217 1 0.0 -5.887871 -3.859816 -21.780067
218 2 0.0 -6.396489 -3.860712 -22.599982
219 1 0.0 -7.293664 -3.711275 -22.277956
220 1 0.0 -6.168855 7.19993 -26.334919
221 2 0.0 -6.813178 6.650913 -25.871905
222 1 0.0 -7.286802 6.238847 -26.604596
223 1 0.0 4.783523 7.093497 -25.077889
224 2 0.0 4.147584 6.418924 -24.810522
225 1 0.0 4.625655 5.961798 -24.108071
226 1 0.0 -7.138445 1.569222 -21.80599
227 2 0.0 -8.092675 1.634963 -21.932788
228 1 0.0 -8.371931 0.718067 -21.822017
229 1 0.0 -2.714046 4.950642 -27.416056
230 2 0.0 -2.632986 5.694428 -28.025289
231 1 0.0 -2.549769 6.440345 -27.418959
232 1 0.0 -3.739774 -2.918002 -24.379092
233 2 0.0 -3.13159 -2.683246 -23.667786
234 1 0.0 -3.737515 -2.392118 -22.975649
235 1 0.0 4.20874 -8.73625 -22.905241
236 2 0.0 4.276769 -8.787184 -21.944132
237 1 0.0 4.284923 -7.854977 -21.695379
238 1 0.0 -0.93189 -3.468786 -29.49249
239 2 0.0 -1.51089 -3.359331 -28.728466
240 1 0.0 -1.504906 -4.244938 -28.345559
241 1 0.0 -0.175473 -0.161013 -30.426331
242 2 0.0 -0.245751 0.776098 -30.207614
243 1 0.0 0.633635 1.100515 -30.436499
244 1 0.0 5.293827 -4.472301 -21.824769
245 2 0.0 4.941108 -3.825452 -22.447769
246 1 0.0 4.601384 -3.143478 -21.855778
247 1 0.0 5.251754 -8.877259 -27.587882
248 2 0.0 6.178614 -8.954191 -27.331045
249 1 0.0 6.111673 -9.385316 -26.470462
250 1 0.0 7.400978 3.472494 -27.127551
251 2 0.0 8.278764 3.166246 -27.385732
252 1 0.0 8.08544 2.296124 -27.755146
253 1 0.0 0.967025 7.873491 -27.538116
254 2 0.0 1.764675 7.409721 -27.255934
255 1 0.0 2.460325 7.99289 -27.582948
256 1 0.0 9.802099 -5.356227 -25.042033
257 2 0.0 9.170184 -5.839363 -25.588125
258 1 0.0 9.716033 -6.55266 -25.940559
259 1 0.0 -0.071245 -6.277656 -22.146831
260 2 0.0 -0.451556 -5.419134 -21.924893
261 1 0.0 -0.465619 -4.979541 -22.783679
262 1 0.0 0.65135 -2.514627 -27.800809
263 2 0.0 0.479457 -1.745515 -28.357472
264 1 0.0 -0.270036 -1.337379 -27.907318
265 1 0.0 3.268835 0.26194 -30.445899
266 2 0.0 4.008049 0.348681 -29.831901
267 1 0.0 4.75627 0.445216 -30.433398
268 1 0.0 4.718318 -2.915868 -25.707434
269 2 0.0 5.12976 -2.61951 -26.528312
270 1 0.0 5.526042 -1.78133 -26.261163
271 1 0.0 8.31807 9.160681 -24.255633
272 2 0.0 9.011946 9.384799 -23.623762
273 1 0.0 9.802 9.355512 -24.176855
274 1 0.0 -1.416602 -4.104318 -25.095099
275 2 0.0 -1.513519 -3.621202 -25.924652
276 1 0.0 -1.397185 -2.70738 -25.637684
277 1 0.0 -0.624945 -8.806669 -30.394137
278 2 0.0 -1.342696 -9.085612 -29.812778
279 1 0.0 -2.006695 -9.384878 -30.445627
280 1 0.0 1.156846 3.011719 -24.499766
281 2 0.0 0.502518 2.315378 -24.633627
282 1 0.0 -0.152088 2.760577 -25.185209
283 1 0.0 -7.923603 9.384999 -27.381834
284 2 0.0 -7.336166 8.971175 -28.025744
285 1 0.0 -6.487495 9.3766 -27.810475
286 1 0.0 1.86215 6.179114 -30.445844
287 2 0.0 2.420028 6.670988 -29.831201
288 1 0.0 2.985753 7.170848 -30.432075
289 1 0.0 9.802 -6.901371 -29.538085
290 2 0.0 9.749361 -7.223664 -30.446
291 1 0.0 9.790861 -8.17946 -30.320758
292 1 0.0 7.503492 -0.522543 -30.446
293 2 0.0 7.041073 -0.91134 -29.693698
294 1 0.0 7.119574 -0.215189 -29.030249
295 1 0.0 7.184431 -6.456515 -30.42536
296 2 0.0 7.029369 -5.504254 -30.414963
297 1 0.0 7.928544 -5.155714 -30.445936
298 1 0.0 -5.996417 -9.306385 -21.883236
299 2 0.0 -6.763536 -9.3352 -22.467746
300 1 0.0 -7.49445 -9.315381 -21.838202
301 1 0.0 7.450428 -9.385 -30.446
302 2 0.0 6.707107 -9.073998 -29.915241
303 1 0.0 5.951772 -9.381404 -30.430919
304 1 0.0 -2.474586 -7.570344 -21.871084
305 2 0.0 -3.132337 -8.254208 -21.696021
306 1 0.0 -3.953676 -7.80502 -21.929657
307 1 0.0 3.757019 9.31156 -24.321928
308 2 0.0 2.792836 9.327071 -24.354539
309 1 0.0 2.62536 9.30729 -25.304546
310 1 0.0 4.455453 -7.023134 -30.154867
311 2 0.0 3.638398 -6.600566 -30.446089
312 1 0.0 3.313398 -6.209218 -29.626226
313 1 0.0 -1.863615 -0.406702 -24.523892
314 2 0.0 -1.486051 0.37261 -24.949417
315 1 0.0 -1.271673 0.035712 -25.827764
316 1 0.0 -9.678288 -6.102717 -25.418409
317 2 0.0 -8.831962 -5.945593 -25.854297
318 1 0.0 -8.326158 -5.511605 -25.156608
319 1 0.0 9.692294 -5.208242 -22.342647
320 2 0.0 9.798024 -6.0395 -21.864334
321 1 0.0 9.801855 -6.683557 -22.582755
322 1 0.0 8.71419 6.808167 -30.445999
323 2 0.0 9.674036 6.879492 -30.378459
324 1 0.0 9.802 6.948216 -29.424595
325 1 0.0 -7.582278 4.11644 -30.224791
326 2 0.0 -6.755827 4.562625 -30.445812
327 1 0.0 -6.114497 3.846573 -30.362635
328 1 0.0 -5.336694 2.834691 -28.071264
329 2 0.0 -6.255549 2.543541 -28.027773
330 1 0.0 -6.706791 3.349374 -27.748546
331 1 0.0 7.428627 -3.386343 -25.264055
332 2 0.0 7.438591 -4.224472 -24.786149
333 1 0.0 6.500754 -4.362153 -24.605984
334 1 0.0 -9.801718 -9.384714 -25.647812
335 2 0.0 -9.730813 -8.766028 -26.384801
336 1 0.0 -9.744505 -9.359735 -27.145247
337 1 0.0 7.016668 7.047016 -27.345729
338 2 0.0 7.8426 6.88599 -27.817811
339 1 0.0 7.7014 5.998545 -28.169174
340 1 0.0 -2.6694 1.265395 -29.556803
341 2 0.0 -3.418456 1.188182 -30.160049
342 1 0.0 -4.160852 1.118095 -29.547767
343 1 0.0 -2.979355 -7.019664 -30.390837
344 2 0.0 -2.265795 -6.370623 -30.413886
345 1 0.0 -2.753507 -5.538131 -30.407024
346 1 0.0 -4.423679 8.507997 -30.446
347 2 0.0 -4.898347 9.02412 -29.783232
348 1 0.0 -5.630029 9.385 -30.298363
349 1 0.0 9.752592 1.594964 -25.752422
350 2 0.0 9.802 2.0356 -24.895479
351 1 0.0 9.757345 2.966005 -25.147084
352 1 0.0 -6.666546 0.054051 -30.445855
353 2 0.0 -6.990365 0.705432 -29.81198
354 1 0.0 -7.340975 1.391418 -30.392885
355 1 0.0 6.069784 9.307952 -25.847289
356 2 0.0 5.853749 9.385 -26.78449
357 1 0.0 4.912458 9.173115 -26.789959
358 1 0.0 -0.022419 -8.552328 -27.585745
359 2 0.0 0.230117 -7.690518 -27.938539
360 1 0.0 0.317216 -7.164014 -27.134698
361 1 0.0 -3.252138 9.367478 -23.327694
362 2 0.0 -2.459643 9.360904 -22.777365
363 1 0.0 -2.83452 9.365166 -21.888319
364 1 0.0 -6.411308 -9.384842 -30.428074
365 2 0.0 -5.446957 -9.356306 -30.44097
366 1 0.0 -5.274637 -8.410269 -30.36176
367 1 0.0 0.790903 3.757339 -29.8919
368 2 0.0 0.078939 4.09944 -30.446
369 1 0.0 -0.661432 4.12177 -29.827691
370 1 0.0 -5.361207 5.697925 -28.488636
371 2 0.0 -5.315484 6.414484 -29.133156
372 1 0.0 -6.198034 6.798728 -29.066705
373 1 0.0 5.182093 0.669036 -27.456753
374 2 0.0 5.438534 1.552729 -27.747061
375 1 0.0 4.585275 1.999863 -27.801599
376 1 0.0 2.10642 -0.699885 -26.773422
377 2 0.0 2.879712 -1.236915 -26.984544
378 1 0.0 2.886167 -1.206309 -27.948896
379 1 0.0 -2.784963 0.800709 -21.859393
380 2 0.0 -2.173695 1.311907 -22.403436
381 1 0.0 -1.615717 1.730229 -21.736637
382 1 0.0 7.10247 9.119466 -21.798212
383 2 0.0 6.180126 9.38374 -21.90017
384 1 0.0 6.07722 9.381555 -22.859524
385 1 0.0 -9.751292 -1.358457 -22.892614
386 2 0.0 -9.801882 -1.919674 -23.675831
387 1 0.0 -9.741071 -1.272477 -24.388847
388 1 0.0 -2.542175 2.443913 -26.345086
389 2 0.0 -2.804113 2.057295 -27.189401
390 1 0.0 -3.55153 1.504148 -26.931817
391 1 0.0 -8.673323 6.646728 -30.403732
392 2 0.0 -9.637321 6.612982 -30.380896
393 1 0.0 -9.80181 5.664792 -30.31137
394 1 0.0 -9.773333 -3.860711 -29.814916
395 2 0.0 -9.802 -4.590002 -30.446
396 1 0.0 -8.911054 -4.952827 -30.371662
397 1 0.0 5.28723 1.113416 -21.904295
398 2 0.0 6.24671 1.213432 -21.885629
399 1 0.0 6.34717 2.172983 -21.896722
400 1 0.0 -5.942302 9.377239 -24.731849
401 2 0.0 -6.896233 9.287415 -24.845432
402 1 0.0 -7.214669 9.384917 -23.939869
403 1 0.0 -9.665977 7.137661 -26.276465
404 2 0.0 -9.801999 7.785298 -26.978618
405 1 0.0 -9.404428 7.342241 -27.737954
406 1 0.0 -7.335648 0.735801 -24.712058
407 2 0.0 -7.083655 1.653168 -24.551156
408 1 0.0 -7.124306 2.029463 -25.438683
409 1 0.0 -9.802 4.674427 -24.564374
410 2 0.0 -8.930915 4.98237 -24.842468
411 1 0.0 -8.357363 4.278258 -24.516556
412 1 0.0 -3.06291 -1.408618 -27.417778
413 2 0.0 -3.588054 -1.31827 -26.613406
414 1 0.0 -4.428241 -0.993822 -26.95949
415 1 0.0 -5.515805 4.258038 -25.489516
416 2 0.0 -4.61128 4.00023 -25.704745
417 1 0.0 -4.199372 3.972057 -24.832684
418 1 0.0 9.761129 5.276771 -26.671183
419 2 0.0 9.779086 5.640988 -25.777887
420 1 0.0 9.763492 6.590328 -25.949537
421 1 0.0 -5.096392 -1.872819 -29.202441
422 2 0.0 -5.199075 -1.949349 -30.158764
423 1 0.0 -5.047259 -2.891576 -30.300591
424 1 0.0 0.247861 1.495771 -27.593479
425 2 0.0 1.096964 1.779342 -27.953431
426 1 0.0 1.598348 1.972822 -27.152099
427 1 0.0 -0.311801 8.035589 -21.768842
428 2 0.0 -0.664753 7.325118 -22.318032
429 1 0.0 -1.443408 7.054075 -21.816849
430 1 0.0 1.991632 -8.65658 -29.89537
431 2 0.0 2.577136 -9.377381 -29.633484
432 1 0.0 3.224644 -9.377889 -30.348806
433 1 0.0 1.151767 -2.374542 -24.797079
434 2 0.0 0.630136 -1.92012 -24.124506
435 1 0.0 0.814457 -0.993792 -24.321726
436 1 0.0 1.318383 -6.422319 -24.467697
437 2 0.0 0.994984 -5.67484 -24.985037
438 1 0.0 1.74433 -5.068141 -24.9483
439 1 0.0 4.987799 -5.759358 -27.058445
440 2 0.0 5.164279 -6.080965 -27.950845
441 1 0.0 6.020557 -6.51199 -27.841494
442 1 0.0 -8.87023 -8.363461 -30.445936
443 2 0.0 -9.801907 -8.613371 -30.424119
444 1 0.0 -9.787658 -9.384798 -29.844765
445 1 0.0 -5.790534 5.06503 -22.877262
446 2 0.0 -6.153584 5.129302 -21.985624
447 1 0.0 -6.488361 4.235849 -21.842029
448 1 0.0 5.178337 -3.477108 -30.436685
449 2 0.0 4.931215 -2.544479 -30.446
450 1 0.0 4.736684 -2.380696 -29.515255
451 1 0.0 2.426411 7.470562 -21.85626
452 2 0.0 3.179892 7.604778 -22.443801
453 1 0.0 3.889737 7.792125 -21.817722
454 1 0.0 -4.019608 9.384499 -26.68713
455 2 0.0 -3.793453 8.498479 -26.379274
456 1 0.0 -2.938807 8.646593 -25.956667
457 1 0.0 0.839293 -9.33541 -25.216861
458 2 0.0 1.646031 -9.385 -25.743802
459 1 0.0 2.330393 -9.330405 -25.065849
460 1 0.0 2.437572 -3.711236 -30.419647
461 2 0.0 1.697289 -3.092768 -30.440431
462 1 0.0 2.148048 -2.240962 -30.393555
463 1 0.0 -9.304999 -2.584608 -27.199871
464 2 0.0 -9.602427 -3.4846 -27.019585
465 1 0.0 -9.801648 -3.443331 -26.076419
466 1 0.0 9.429577 1.459118 -30.445456
467 2 0.0 9.758252 0.655131 -30.0253
468 1 0.0 9.802 0.918549 -29.098126
469 1 0.0 -5.536475 -0.659558 -21.838337
470 2 0.0 -6.362825 -1.156139 -21.877167
471 1 0.0 -6.57777 -1.111934 -22.81674
472 1 0.0 -5.274316 -5.890031 -29.501235
473 2 0.0 -5.498248 -5.750135 -30.429264
474 1 0.0 -6.433983 -5.984819 -30.445903
475 1 0.0 3.345214 4.882079 -21.929225
476 2 0.0 3.481269 4.086246 -22.457518
477 1 0.0 3.948632 3.513241 -21.837687
478 1 0.0 1.087664 5.735411 -24.841014
479 2 0.0 1.480712 6.286675 -24.153573
480 1 0.0 1.409551 7.167893 -24.540024
481 4 0.0 -10.438 -9.925986 -19.196
482 4 0.0 -10.438 -9.925986 -12.5
483 4 0.0 -10.438 -5.671986 -19.196
484 4 0.0 -10.438 -5.671986 -12.5
485 4 0.0 -10.438 -1.417985 -19.196
486 4 0.0 -10.438 -1.417985 -12.5
487 4 0.0 -10.438 2.836015 -19.196
488 4 0.0 -10.438 2.836015 -12.5
489 4 0.0 -10.438 7.090015 -19.196
490 4 0.0 -10.438 7.090015 -12.5
491 4 0.0 -7.982 -9.925986 -19.196
492 4 0.0 -7.982 -9.925986 -12.5
493 4 0.0 -7.982 -5.671986 -19.196
494 4 0.0 -7.982 -5.671986 -12.5
495 4 0.0 -7.982 -1.417985 -19.196
496 4 0.0 -7.982 -1.417985 -12.5
497 4 0.0 -7.982 2.836015 -19.196
498 4 0.0 -7.982 2.836015 -12.5
499 4 0.0 -7.982 7.090015 -19.196
500 4 0.0 -7.982 7.090015 -12.5
501 4 0.0 -5.526 -9.925986 -19.196
502 4 0.0 -5.526 -9.925986 -12.5
503 4 0.0 -5.526 -5.671986 -19.196
504 4 0.0 -5.526 -5.671986 -12.5
505 4 0.0 -5.526 -1.417985 -19.196
506 4 0.0 -5.526 -1.417985 -12.5
507 4 0.0 -5.526 2.836015 -19.196
508 4 0.0 -5.526 2.836015 -12.5
509 4 0.0 -5.526 7.090015 -19.196
510 4 0.0 -5.526 7.090015 -12.5
511 4 0.0 -3.07 -9.925986 -19.196
512 4 0.0 -3.07 -9.925986 -12.5
513 4 0.0 -3.07 -5.671986 -19.196
514 4 0.0 -3.07 -5.671986 -12.5
515 4 0.0 -3.07 -1.417985 -19.196
516 4 0.0 -3.07 -1.417985 -12.5
517 4 0.0 -3.07 2.836015 -19.196
518 4 0.0 -3.07 2.836015 -12.5
519 4 0.0 -3.07 7.090015 -19.196
520 4 0.0 -3.07 7.090015 -12.5
521 4 0.0 -0.614 -9.925986 -19.196
522 4 0.0 -0.614 -9.925986 -12.5
523 4 0.0 -0.614 -5.671986 -19.196
524 4 0.0 -0.614 -5.671986 -12.5
525 4 0.0 -0.614 -1.417985 -19.196
526 4 0.0 -0.614 -1.417985 -12.5
527 4 0.0 -0.614 2.836015 -19.196
528 4 0.0 -0.614 2.836015 -12.5
529 4 0.0 -0.614 7.090015 -19.196
530 4 0.0 -0.614 7.090015 -12.5
531 4 0.0 1.842 -9.925986 -19.196
532 4 0.0 1.842 -9.925986 -12.5
533 4 0.0 1.842 -5.671986 -19.196
534 4 0.0 1.842 -5.671986 -12.5
535 4 0.0 1.842 -1.417985 -19.196
536 4 0.0 1.842 -1.417985 -12.5
537 4 0.0 1.842 2.836015 -19.196
538 4 0.0 1.842 2.836015 -12.5
539 4 0.0 1.842 7.090015 -19.196
540 4 0.0 1.842 7.090015 -12.5
541 4 0.0 4.298001 -9.925986 -19.196
542 4 0.0 4.298001 -9.925986 -12.5
543 4 0.0 4.298001 -5.671986 -19.196
544 4 0.0 4.298001 -5.671986 -12.5
545 4 0.0 4.298001 -1.417985 -19.196
546 4 0.0 4.298001 -1.417985 -12.5
547 4 0.0 4.298001 2.836015 -19.196
548 4 0.0 4.298001 2.836015 -12.5
549 4 0.0 4.298001 7.090015 -19.196
550 4 0.0 4.298001 7.090015 -12.5
551 4 0.0 6.754001 -9.925986 -19.196
552 4 0.0 6.754001 -9.925986 -12.5
553 4 0.0 6.754001 -5.671986 -19.196
554 4 0.0 6.754001 -5.671986 -12.5
555 4 0.0 6.754001 -1.417985 -19.196
556 4 0.0 6.754001 -1.417985 -12.5
557 4 0.0 6.754001 2.836015 -19.196
558 4 0.0 6.754001 2.836015 -12.5
559 4 0.0 6.754001 7.090015 -19.196
560 4 0.0 6.754001 7.090015 -12.5
561 4 0.0 9.210001 -9.925986 -19.196
562 4 0.0 9.210001 -9.925986 -12.5
563 4 0.0 9.210001 -5.671986 -19.196
564 4 0.0 9.210001 -5.671986 -12.5
565 4 0.0 9.210001 -1.417985 -19.196
566 4 0.0 9.210001 -1.417985 -12.5
567 4 0.0 9.210001 2.836015 -19.196
568 4 0.0 9.210001 2.836015 -12.5
569 4 0.0 9.210001 7.090015 -19.196
570 4 0.0 9.210001 7.090015 -12.5
571 4 0.0 -10.438 -7.090014 -19.196
572 4 0.0 -10.438 -7.090014 -12.5
573 4 0.0 -10.438 -2.836014 -19.196
574 4 0.0 -10.438 -2.836014 -12.5
575 4 0.0 -10.438 1.417986 -19.196
576 4 0.0 -10.438 1.417986 -12.5
577 4 0.0 -10.438 5.671987 -19.196
578 4 0.0 -10.438 5.671987 -12.5
579 4 0.0 -10.438 9.925987 -19.196
580 4 0.0 -10.438 9.925987 -12.5
581 4 0.0 -7.982 -7.090014 -19.196
582 4 0.0 -7.982 -7.090014 -12.5
583 4 0.0 -7.982 -2.836014 -19.196
584 4 0.0 -7.982 -2.836014 -12.5
585 4 0.0 -7.982 1.417986 -19.196
586 4 0.0 -7.982 1.417986 -12.5
587 4 0.0 -7.982 5.671987 -19.196
588 4 0.0 -7.982 5.671987 -12.5
589 4 0.0 -7.982 9.925987 -19.196
590 4 0.0 -7.982 9.925987 -12.5
591 4 0.0 -5.526 -7.090014 -19.196
592 4 0.0 -5.526 -7.090014 -12.5
593 4 0.0 -5.526 -2.836014 -19.196
594 4 0.0 -5.526 -2.836014 -12.5
595 4 0.0 -5.526 1.417986 -19.196
596 4 0.0 -5.526 1.417986 -12.5
597 4 0.0 -5.526 5.671987 -19.196
598 4 0.0 -5.526 5.671987 -12.5
599 4 0.0 -5.526 9.925987 -19.196
600 4 0.0 -5.526 9.925987 -12.5
601 4 0.0 -3.07 -7.090014 -19.196
602 4 0.0 -3.07 -7.090014 -12.5
603 4 0.0 -3.07 -2.836014 -19.196
604 4 0.0 -3.07 -2.836014 -12.5
605 4 0.0 -3.07 1.417986 -19.196
606 4 0.0 -3.07 1.417986 -12.5
607 4 0.0 -3.07 5.671987 -19.196
608 4 0.0 -3.07 5.671987 -12.5
609 4 0.0 -3.07 9.925987 -19.196
610 4 0.0 -3.07 9.925987 -12.5
611 4 0.0 -0.614 -7.090014 -19.196
612 4 0.0 -0.614 -7.090014 -12.5
613 4 0.0 -0.614 -2.836014 -19.196
614 4 0.0 -0.614 -2.836014 -12.5
615 4 0.0 -0.614 1.417986 -19.196
616 4 0.0 -0.614 1.417986 -12.5
617 4 0.0 -0.614 5.671987 -19.196
618 4 0.0 -0.614 5.671987 -12.5
619 4 0.0 -0.614 9.925987 -19.196
620 4 0.0 -0.614 9.925987 -12.5
621 4 0.0 1.842 -7.090014 -19.196
622 4 0.0 1.842 -7.090014 -12.5
623 4 0.0 1.842 -2.836014 -19.196
624 4 0.0 1.842 -2.836014 -12.5
625 4 0.0 1.842 1.417986 -19.196
626 4 0.0 1.842 1.417986 -12.5
627 4 0.0 1.842 5.671987 -19.196
628 4 0.0 1.842 5.671987 -12.5
629 4 0.0 1.842 9.925987 -19.196
630 4 0.0 1.842 9.925987 -12.5
631 4 0.0 4.298001 -7.090014 -19.196
632 4 0.0 4.298001 -7.090014 -12.5
633 4 0.0 4.298001 -2.836014 -19.196
634 4 0.0 4.298001 -2.836014 -12.5
635 4 0.0 4.298001 1.417986 -19.196
636 4 0.0 4.298001 1.417986 -12.5
637 4 0.0 4.298001 5.671987 -19.196
638 4 0.0 4.298001 5.671987 -12.5
639 4 0.0 4.298001 9.925987 -19.196
640 4 0.0 4.298001 9.925987 -12.5
641 4 0.0 6.754001 -7.090014 -19.196
642 4 0.0 6.754001 -7.090014 -12.5
643 4 0.0 6.754001 -2.836014 -19.196
644 4 0.0 6.754001 -2.836014 -12.5
645 4 0.0 6.754001 1.417986 -19.196
646 4 0.0 6.754001 1.417986 -12.5
647 4 0.0 6.754001 5.671987 -19.196
648 4 0.0 6.754001 5.671987 -12.5
649 4 0.0 6.754001 9.925987 -19.196
650 4 0.0 6.754001 9.925987 -12.5
651 4 0.0 9.210001 -7.090014 -19.196
652 4 0.0 9.210001 -7.090014 -12.5
653 4 0.0 9.210001 -2.836014 -19.196
654 4 0.0 9.210001 -2.836014 -12.5
655 4 0.0 9.210001 1.417986 -19.196
656 4 0.0 9.210001 1.417986 -12.5
657 4 0.0 9.210001 5.671987 -19.196
658 4 0.0 9.210001 5.671987 -12.5
659 4 0.0 9.210001 9.925987 -19.196
660 4 0.0 9.210001 9.925987 -12.5
661 4 0.0 -10.438 -7.798986 -15.848
662 4 0.0 -10.438 -3.544986 -15.848
663 4 0.0 -10.438 0.709015 -15.848
664 4 0.0 -10.438 4.963015 -15.848
665 4 0.0 -10.438 9.217015 -15.848
666 4 0.0 -7.982 -7.798986 -15.848
667 4 0.0 -7.982 -3.544986 -15.848
668 4 0.0 -7.982 0.709015 -15.848
669 4 0.0 -7.982 4.963015 -15.848
670 4 0.0 -7.982 9.217015 -15.848
671 4 0.0 -5.526 -7.798986 -15.848
672 4 0.0 -5.526 -3.544986 -15.848
673 4 0.0 -5.526 0.709015 -15.848
674 4 0.0 -5.526 4.963015 -15.848
675 4 0.0 -5.526 9.217015 -15.848
676 4 0.0 -3.07 -7.798986 -15.848
677 4 0.0 -3.07 -3.544986 -15.848
678 4 0.0 -3.07 0.709015 -15.848
679 4 0.0 -3.07 4.963015 -15.848
680 4 0.0 -3.07 9.217015 -15.848
681 4 0.0 -0.614 -7.798986 -15.848
682 4 0.0 -0.614 -3.544986 -15.848
683 4 0.0 -0.614 0.709015 -15.848
684 4 0.0 -0.614 4.963015 -15.848
685 4 0.0 -0.614 9.217015 -15.848
686 4 0.0 1.842 -7.798986 -15.848
687 4 0.0 1.842 -3.544986 -15.848
688 4 0.0 1.842 0.709015 -15.848
689 4 0.0 1.842 4.963015 -15.848
690 4 0.0 1.842 9.217015 -15.848
691 4 0.0 4.298001 -7.798986 -15.848
692 4 0.0 4.298001 -3.544986 -15.848
693 4 0.0 4.298001 0.709015 -15.848
694 4 0.0 4.298001 4.963015 -15.848
695 4 0.0 4.298001 9.217015 -15.848
696 4 0.0 6.754001 -7.798986 -15.848
697 4 0.0 6.754001 -3.544986 -15.848
698 4 0.0 6.754001 0.709015 -15.848
699 4 0.0 6.754001 4.963015 -15.848
700 4 0.0 6.754001 9.217015 -15.848
701 4 0.0 9.210001 -7.798986 -15.848
702 4 0.0 9.210001 -3.544986 -15.848
703 4 0.0 9.210001 0.709015 -15.848
704 4 0.0 9.210001 4.963015 -15.848
705 4 0.0 9.210001 9.217015 -15.848
706 4 0.0 -10.438 -9.217014 -15.848
707 4 0.0 -10.438 -4.963014 -15.848
708 4 0.0 -10.438 -0.709014 -15.848
709 4 0.0 -10.438 3.544986 -15.848
710 4 0.0 -10.438 7.798987 -15.848
711 4 0.0 -7.982 -9.217014 -15.848
712 4 0.0 -7.982 -4.963014 -15.848
713 4 0.0 -7.982 -0.709014 -15.848
714 4 0.0 -7.982 3.544986 -15.848
715 4 0.0 -7.982 7.798987 -15.848
716 4 0.0 -5.526 -9.217014 -15.848
717 4 0.0 -5.526 -4.963014 -15.848
718 4 0.0 -5.526 -0.709014 -15.848
719 4 0.0 -5.526 3.544986 -15.848
720 4 0.0 -5.526 7.798987 -15.848
721 4 0.0 -3.07 -9.217014 -15.848
722 4 0.0 -3.07 -4.963014 -15.848
723 4 0.0 -3.07 -0.709014 -15.848
724 4 0.0 -3.07 3.544986 -15.848
725 4 0.0 -3.07 7.798987 -15.848
726 4 0.0 -0.614 -9.217014 -15.848
727 4 0.0 -0.614 -4.963014 -15.848
728 4 0.0 -0.614 -0.709014 -15.848
729 4 0.0 -0.614 3.544986 -15.848
730 4 0.0 -0.614 7.798987 -15.848
731 4 0.0 1.842 -9.217014 -15.848
732 4 0.0 1.842 -4.963014 -15.848
733 4 0.0 1.842 -0.709014 -15.848
734 4 0.0 1.842 3.544986 -15.848
735 4 0.0 1.842 7.798987 -15.848
736 4 0.0 4.298001 -9.217014 -15.848
737 4 0.0 4.298001 -4.963014 -15.848
738 4 0.0 4.298001 -0.709014 -15.848
739 4 0.0 4.298001 3.544986 -15.848
740 4 0.0 4.298001 7.798987 -15.848
741 4 0.0 6.754001 -9.217014 -15.848
742 4 0.0 6.754001 -4.963014 -15.848
743 4 0.0 6.754001 -0.709014 -15.848
744 4 0.0 6.754001 3.544986 -15.848
745 4 0.0 6.754001 7.798987 -15.848
746 4 0.0 9.210001 -9.217014 -15.848
747 4 0.0 9.210001 -4.963014 -15.848
748 4 0.0 9.210001 -0.709014 -15.848
749 4 0.0 9.210001 3.544986 -15.848
750 4 0.0 9.210001 7.798987 -15.848
751 4 0.0 -9.21 -9.925986 -15.848
752 4 0.0 -9.21 -5.671986 -15.848
753 4 0.0 -9.21 -1.417985 -15.848
754 4 0.0 -9.21 2.836015 -15.848
755 4 0.0 -9.21 7.090015 -15.848
756 4 0.0 -6.754 -9.925986 -15.848
757 4 0.0 -6.754 -5.671986 -15.848
758 4 0.0 -6.754 -1.417985 -15.848
759 4 0.0 -6.754 2.836015 -15.848
760 4 0.0 -6.754 7.090015 -15.848
761 4 0.0 -4.298 -9.925986 -15.848
762 4 0.0 -4.298 -5.671986 -15.848
763 4 0.0 -4.298 -1.417985 -15.848
764 4 0.0 -4.298 2.836015 -15.848
765 4 0.0 -4.298 7.090015 -15.848
766 4 0.0 -1.842 -9.925986 -15.848
767 4 0.0 -1.842 -5.671986 -15.848
768 4 0.0 -1.842 -1.417985 -15.848
769 4 0.0 -1.842 2.836015 -15.848
770 4 0.0 -1.842 7.090015 -15.848
771 4 0.0 0.614 -9.925986 -15.848
772 4 0.0 0.614 -5.671986 -15.848
773 4 0.0 0.614 -1.417985 -15.848
774 4 0.0 0.614 2.836015 -15.848
775 4 0.0 0.614 7.090015 -15.848
776 4 0.0 3.07 -9.925986 -15.848
777 4 0.0 3.07 -5.671986 -15.848
778 4 0.0 3.07 -1.417985 -15.848
779 4 0.0 3.07 2.836015 -15.848
780 4 0.0 3.07 7.090015 -15.848
781 4 0.0 5.526001 -9.925986 -15.848
782 4 0.0 5.526001 -5.671986 -15.848
783 4 0.0 5.526001 -1.417985 -15.848
784 4 0.0 5.526001 2.836015 -15.848
785 4 0.0 5.526001 7.090015 -15.848
786 4 0.0 7.982001 -9.925986 -15.848
787 4 0.0 7.982001 -5.671986 -15.848
788 4 0.0 7.982001 -1.417985 -15.848
789 4 0.0 7.982001 2.836015 -15.848
790 4 0.0 7.982001 7.090015 -15.848
791 4 0.0 10.438001 -9.925986 -15.848
792 4 0.0 10.438001 -5.671986 -15.848
793 4 0.0 10.438001 -1.417985 -15.848
794 4 0.0 10.438001 2.836015 -15.848
795 4 0.0 10.438001 7.090015 -15.848
796 4 0.0 -9.21 -7.090014 -15.848
797 4 0.0 -9.21 -2.836014 -15.848
798 4 0.0 -9.21 1.417986 -15.848