LAMMPS Description

  1050 atoms
  4 atom types
  0.0 12.28 xlo xhi
  0.0 12.762 ylo yhi
  0.0 93.392 zlo zhi


Masses

1 1.008 # H
2 15.999 # O
3 22.99 # Na
4 12.011 # C

Atoms

1 1 0.0 1.235637 10.594691 4.594497
2 2 0.0 1.353217 11.528814 4.805549
3 1 0.0 1.949594 11.488327 5.562946
4 1 0.0 1.866277 6.115141 1.22048
5 2 0.0 1.227447 5.400571 1.331117
6 1 0.0 1.201276 5.303641 2.290738
7 1 0.0 3.600497 4.155683 6.361593
8 2 0.0 3.247558 3.679288 5.600386
9 1 0.0 3.260834 4.359426 4.916142
10 1 0.0 9.149122 11.511006 11.414433
11 2 0.0 8.867632 11.250997 12.299934
12 1 0.0 8.547555 10.35296 12.151492
13 1 0.0 1.799619 3.144294 12.80366
14 2 0.0 1.835751 4.029423 12.421305
15 1 0.0 2.694764 4.021675 11.981997
16 1 0.0 2.012154 7.002026 4.295248
17 2 0.0 1.904632 6.874708 5.245607
18 1 0.0 1.234016 6.181811 5.279097
19 1 0.0 5.33544 11.521396 6.157016
20 2 0.0 5.599294 11.561252 5.229791
21 1 0.0 4.747156 11.526392 4.778572
22 1 0.0 5.54946 11.361789 2.153443
23 2 0.0 5.538556 11.029015 1.247851
24 1 0.0 5.208244 10.130689 1.369748
25 1 0.0 3.68911 10.644755 9.783407
26 2 0.0 4.00072 11.517714 9.515462
27 1 0.0 3.988478 11.44687 8.553285
28 1 0.0 11.035412 7.248697 8.180246
29 2 0.0 10.282969 7.262899 8.784052
30 1 0.0 9.54288 7.384898 8.177144
31 1 0.0 7.878972 4.108481 11.248523
32 2 0.0 7.30184 4.875957 11.154439
33 1 0.0 7.83647 5.460883 10.603999
34 1 0.0 8.622945 10.197092 6.015098
35 2 0.0 8.109419 10.598398 6.726574
36 1 0.0 8.06958 11.521135 6.447427
37 1 0.0 8.294238 11.514691 2.23101
38 2 0.0 8.398594 10.999192 3.039914
39 1 0.0 7.899385 11.524708 3.676763
40 1 0.0 7.011165 1.261229 6.510758
41 2 0.0 7.366091 1.267511 5.613573
42 1 0.0 8.316656 1.232031 5.775196
43 1 0.0 3.819357 1.217856 4.517064
44 2 0.0 4.746817 1.267574 4.778407
45 1 0.0 5.196079 1.237316 3.92506
46 1 0.0 10.974262 8.807411 5.65984
47 2 0.0 11.098285 8.580114 4.730374
48 1 0.0 10.528077 9.222256 4.290522
49 1 0.0 9.904362 4.116002 9.391334
50 2 0.0 10.773821 3.812667 9.103268
51 1 0.0 11.043583 4.520251 8.505349
52 1 0.0 1.277086 2.923581 3.665078
53 2 0.0 1.252444 2.18625 4.286921
54 1 0.0 1.205115 1.426846 3.693609
55 1 0.0 1.352538 11.516548 1.588578
56 2 0.0 2.131736 11.493982 2.157168
57 1 0.0 2.849263 11.53616 1.513484
58 1 0.0 4.396232 5.706565 10.501786
59 2 0.0 3.972945 5.159079 9.829446
60 1 0.0 4.605228 5.211925 9.102549
61 1 0.0 7.999661 1.877708 1.245578
62 2 0.0 7.636936 1.231213 1.863176
63 1 0.0 6.701995 1.230798 1.624764
64 1 0.0 3.598409 2.687342 8.684662
65 2 0.0 3.705656 1.980276 8.036967
66 1 0.0 3.908758 1.223534 8.600035
67 1 0.0 4.270008 6.655286 2.439612
68 2 0.0 4.371543 7.548282 2.08861
69 1 0.0 4.926431 7.395943 1.314113
70 1 0.0 2.380969 6.278119 7.887225
71 2 0.0 2.091658 7.089635 8.321616
72 1 0.0 1.246111 7.257052 7.888054
73 1 0.0 11.030179 7.85222 11.363017
74 2 0.0 10.471331 8.624928 11.216163
75 1 0.0 11.030663 9.340163 11.542567
76 1 0.0 10.501514 1.248648 10.821707
77 2 0.0 11.032862 1.527201 11.577372
78 1 0.0 10.996383 2.488494 11.502953
79 1 0.0 7.053972 6.223028 8.08049
80 2 0.0 6.993699 6.746538 7.272246
81 1 0.0 6.861764 7.636516 7.620796
82 1 0.0 5.070285 2.758119 11.419802
83 2 0.0 4.621194 1.94591 11.156008
84 1 0.0 4.704305 1.405235 11.950814
85 1 0.0 5.892284 9.049091 3.815471
86 2 0.0 6.663053 9.172336 4.382638
87 1 0.0 6.319668 8.909556 5.245185
88 1 0.0 1.252117 8.884897 2.440776
89 2 0.0 1.212187 8.772426 1.483327
90 1 0.0 2.134758 8.896624 1.229571
91 1 0.0 6.605698 11.224417 10.410608
92 2 0.0 6.749075 11.49677 9.496157
93 1 0.0 6.588276 10.67536 9.016175
94 1 0.0 8.961282 3.679594 6.849675
95 2 0.0 8.985927 4.332274 6.139495
96 1 0.0 9.137777 5.15111 6.626735
97 1 0.0 10.725276 2.240949 1.256509
98 2 0.0 10.813101 1.297648 1.439326
99 1 0.0 11.028902 1.296296 2.379741
100 1 0.0 7.761326 1.246816 11.046476
101 2 0.0 7.450799 1.479183 11.929953
102 1 0.0 8.279969 1.637553 12.397233
103 1 0.0 1.249226 10.548167 11.955679
104 2 0.0 1.634756 11.300178 11.490061
105 1 0.0 2.39368 11.511533 12.047121
106 1 0.0 8.997771 4.43882 1.210955
107 2 0.0 8.687435 5.085631 1.856154
108 1 0.0 8.495169 5.848141 1.297079
109 1 0.0 11.01802 9.916952 8.853963
110 2 0.0 10.328015 10.531513 9.131742
111 1 0.0 9.529506 10.004961 9.004933
112 1 0.0 2.825599 9.092063 6.585913
113 2 0.0 3.652232 9.347516 6.158858
114 1 0.0 3.473988 9.132535 5.235296
115 1 0.0 7.432826 8.522882 1.245917
116 2 0.0 7.975374 8.45427 2.040831
117 1 0.0 8.856878 8.643632 1.697253
118 1 0.0 10.99307 10.473275 1.371751
119 2 0.0 10.948553 11.429368 1.49364
120 1 0.0 11.035053 11.512319 2.451027
121 1 0.0 1.247206 6.133892 10.752393
122 2 0.0 1.392587 6.794129 11.440801
123 1 0.0 2.135111 7.295315 11.082438
124 1 0.0 4.806939 6.546858 13.087158
125 2 0.0 4.520903 5.827814 13.66345
126 1 0.0 4.894619 6.092555 14.512686
127 1 0.0 6.178588 7.98121 10.261861
128 2 0.0 5.388749 8.535358 10.256698
129 1 0.0 4.918975 8.205306 9.481242
130 1 0.0 4.463911 9.25378 12.744501
131 2 0.0 5.21787 9.781808 13.033785
132 1 0.0 4.864807 10.678251 12.981933
133 1 0.0 6.343452 4.493059 5.42228
134 2 0.0 6.108369 3.642831 5.031382
135 1 0.0 5.857019 3.898204 4.135524
136 1 0.0 11.039533 1.883071 6.729925
137 2 0.0 11.056282 1.243699 6.007515
138 1 0.0 10.96672 1.814181 5.234545
139 1 0.0 1.937641 1.246253 10.516657
140 2 0.0 1.25631 1.600723 9.932626
141 1 0.0 1.247537 2.533323 10.17988
142 1 0.0 3.978862 1.307283 1.252356
143 2 0.0 3.217106 1.195805 1.833951
144 1 0.0 2.480447 1.315524 1.222433
145 1 0.0 1.241674 9.992168 8.712703
146 2 0.0 1.271316 10.757357 8.12571
147 1 0.0 1.246245 11.490366 8.752625
148 1 0.0 9.912839 4.473557 13.062752
149 2 0.0 10.570833 5.130284 12.804476
150 1 0.0 10.400748 5.2215 11.859117
151 1 0.0 6.464471 3.519238 7.990725
152 2 0.0 6.801401 3.232386 8.848132
153 1 0.0 6.383988 2.368141 8.947129
154 1 0.0 10.673106 6.798909 2.679094
155 2 0.0 11.116783 6.367406 1.938885
156 1 0.0 11.038761 7.032865 1.2446
157 3 0.0 8.459397 3.070019 3.735023
158 3 0.0 8.93319 1.456976 8.467282
159 3 0.0 8.639356 7.437417 5.183905
160 3 0.0 3.560143 3.895031 2.223093
161 3 0.0 6.82392 6.370075 3.416831
162 2 0.0 6.131793 3.89461 1.249877
163 1 0.0 5.93888 4.840723 1.221428
164 2 0.0 11.007296 4.032028 3.380182
165 1 0.0 11.030549 4.387454 4.278117
166 2 0.0 4.509099 6.73609 6.094887
167 1 0.0 4.715361 6.680424 5.152808
168 2 0.0 11.024879 11.511803 6.613841
169 1 0.0 11.032846 11.555126 5.648846
170 2 0.0 1.245112 3.779432 7.728896
171 1 0.0 1.228491 2.913033 7.30201
172 4 0.0 0.614 0.709014 20.0
173 4 0.0 0.614 0.709014 26.696
174 4 0.0 0.614 4.963014 20.0
175 4 0.0 0.614 4.963014 26.696
176 4 0.0 0.614 9.217015 20.0
177 4 0.0 0.614 9.217015 26.696
178 4 0.0 3.07 0.709014 20.0
179 4 0.0 3.07 0.709014 26.696
180 4 0.0 3.07 4.963014 20.0
181 4 0.0 3.07 4.963014 26.696
182 4 0.0 3.07 9.217015 20.0
183 4 0.0 3.07 9.217015 26.696
184 4 0.0 5.526 0.709014 20.0
185 4 0.0 5.526 0.709014 26.696
186 4 0.0 5.526 4.963014 20.0
187 4 0.0 5.526 4.963014 26.696
188 4 0.0 5.526 9.217015 20.0
189 4 0.0 5.526 9.217015 26.696
190 4 0.0 7.982 0.709014 20.0
191 4 0.0 7.982 0.709014 26.696
192 4 0.0 7.982 4.963014 20.0
193 4 0.0 7.982 4.963014 26.696
194 4 0.0 7.982 9.217015 20.0
195 4 0.0 7.982 9.217015 26.696
196 4 0.0 10.438 0.709014 20.0
197 4 0.0 10.438 0.709014 26.696
198 4 0.0 10.438 4.963014 20.0
199 4 0.0 10.438 4.963014 26.696
200 4 0.0 10.438 9.217015 20.0
201 4 0.0 10.438 9.217015 26.696
202 4 0.0 0.614 3.544986 20.0
203 4 0.0 0.614 3.544986 26.696
204 4 0.0 0.614 7.798986 20.0
205 4 0.0 0.614 7.798986 26.696
206 4 0.0 0.614 12.052986 20.0
207 4 0.0 0.614 12.052986 26.696
208 4 0.0 3.07 3.544986 20.0
209 4 0.0 3.07 3.544986 26.696
210 4 0.0 3.07 7.798986 20.0
211 4 0.0 3.07 7.798986 26.696
212 4 0.0 3.07 12.052986 20.0
213 4 0.0 3.07 12.052986 26.696
214 4 0.0 5.526 3.544986 20.0
215 4 0.0 5.526 3.544986 26.696
216 4 0.0 5.526 7.798986 20.0
217 4 0.0 5.526 7.798986 26.696
218 4 0.0 5.526 12.052986 20.0
219 4 0.0 5.526 12.052986 26.696
220 4 0.0 7.982 3.544986 20.0
221 4 0.0 7.982 3.544986 26.696
222 4 0.0 7.982 7.798986 20.0
223 4 0.0 7.982 7.798986 26.696
224 4 0.0 7.982 12.052986 20.0
225 4 0.0 7.982 12.052986 26.696
226 4 0.0 10.438 3.544986 20.0
227 4 0.0 10.438 3.544986 26.696
228 4 0.0 10.438 7.798986 20.0
229 4 0.0 10.438 7.798986 26.696
230 4 0.0 10.438 12.052986 20.0
231 4 0.0 10.438 12.052986 26.696
232 4 0.0 0.614 2.836014 23.348
233 4 0.0 0.614 7.090014 23.348
234 4 0.0 0.614 11.344015 23.348
235 4 0.0 3.07 2.836014 23.348
236 4 0.0 3.07 7.090014 23.348
237 4 0.0 3.07 11.344015 23.348
238 4 0.0 5.526 2.836014 23.348
239 4 0.0 5.526 7.090014 23.348
240 4 0.0 5.526 11.344015 23.348
241 4 0.0 7.982 2.836014 23.348
242 4 0.0 7.982 7.090014 23.348
243 4 0.0 7.982 11.344015 23.348
244 4 0.0 10.438 2.836014 23.348
245 4 0.0 10.438 7.090014 23.348
246 4 0.0 10.438 11.344015 23.348
247 4 0.0 0.614 1.417986 23.348
248 4 0.0 0.614 5.671986 23.348
249 4 0.0 0.614 9.925986 23.348
250 4 0.0 3.07 1.417986 23.348
251 4 0.0 3.07 5.671986 23.348
252 4 0.0 3.07 9.925986 23.348
253 4 0.0 5.526 1.417986 23.348
254 4 0.0 5.526 5.671986 23.348
255 4 0.0 5.526 9.925986 23.348
256 4 0.0 7.982 1.417986 23.348
257 4 0.0 7.982 5.671986 23.348
258 4 0.0 7.982 9.925986 23.348
259 4 0.0 10.438 1.417986 23.348
260 4 0.0 10.438 5.671986 23.348
261 4 0.0 10.438 9.925986 23.348
262 4 0.0 1.842 0.709014 23.348
263 4 0.0 1.842 4.963014 23.348
264 4 0.0 1.842 9.217015 23.348
265 4 0.0 4.298 0.709014 23.348
266 4 0.0 4.298 4.963014 23.348
267 4 0.0 4.298 9.217015 23.348
268 4 0.0 6.754 0.709014 23.348
269 4 0.0 6.754 4.963014 23.348
270 4 0.0 6.754 9.217015 23.348
271 4 0.0 9.21 0.709014 23.348
272 4 0.0 9.21 4.963014 23.348
273 4 0.0 9.21 9.217015 23.348
274 4 0.0 11.666 0.709014 23.348
275 4 0.0 11.666 4.963014 23.348
276 4 0.0 11.666 9.217015 23.348
277 4 0.0 1.842 3.544986 23.348
278 4 0.0 1.842 7.798986 23.348
279 4 0.0 1.842 12.052986 23.348
280 4 0.0 4.298 3.544986 23.348
281 4 0.0 4.298 7.798986 23.348
282 4 0.0 4.298 12.052986 23.348
283 4 0.0 6.754 3.544986 23.348
284 4 0.0 6.754 7.798986 23.348
285 4 0.0 6.754 12.052986 23.348
286 4 0.0 9.21 3.544986 23.348
287 4 0.0 9.21 7.798986 23.348
288 4 0.0 9.21 12.052986 23.348
289 4 0.0 11.666 3.544986 23.348
290 4 0.0 11.666 7.798986 23.348
291 4 0.0 11.666 12.052986 23.348
292 4 0.0 1.842 2.836014 20.0
293 4 0.0 1.842 2.836014 26.696
294 4 0.0 1.842 7.090014 20.0
295 4 0.0 1.842 7.090014 26.696
296 4 0.0 1.842 11.344015 20.0
297 4 0.0 1.842 11.344015 26.696
298 4 0.0 4.298 2.836014 20.0
299 4 0.0 4.298 2.836014 26.696
300 4 0.0 4.298 7.090014 20.0
301 4 0.0 4.298 7.090014 26.696
302 4 0.0 4.298 11.344015 20.0
303 4 0.0 4.298 11.344015 26.696
304 4 0.0 6.754 2.836014 20.0
305 4 0.0 6.754 2.836014 26.696
306 4 0.0 6.754 7.090014 20.0
307 4 0.0 6.754 7.090014 26.696
308 4 0.0 6.754 11.344015 20.0
309 4 0.0 6.754 11.344015 26.696
310 4 0.0 9.21 2.836014 20.0
311 4 0.0 9.21 2.836014 26.696
312 4 0.0 9.21 7.090014 20.0
313 4 0.0 9.21 7.090014 26.696
314 4 0.0 9.21 11.344015 20.0
315 4 0.0 9.21 11.344015 26.696
316 4 0.0 11.666 2.836014 20.0
317 4 0.0 11.666 2.836014 26.696
318 4 0.0 11.666 7.090014 20.0
319 4 0.0 11.666 7.090014 26.696
320 4 0.0 11.666 11.344015 20.0
321 4 0.0 11.666 11.344015 26.696
322 4 0.0 1.842 1.417986 20.0
323 4 0.0 1.842 1.417986 26.696
324 4 0.0 1.842 5.671986 20.0
325 4 0.0 1.842 5.671986 26.696
326 4 0.0 1.842 9.925986 20.0
327 4 0.0 1.842 9.925986 26.696
328 4 0.0 4.298 1.417986 20.0
329 4 0.0 4.298 1.417986 26.696
330 4 0.0 4.298 5.671986 20.0
331 4 0.0 4.298 5.671986 26.696
332 4 0.0 4.298 9.925986 20.0
333 4 0.0 4.298 9.925986 26.696
334 4 0.0 6.754 1.417986 20.0
335 4 0.0 6.754 1.417986 26.696
336 4 0.0 6.754 5.671986 20.0
337 4 0.0 6.754 5.671986 26.696
338 4 0.0 6.754 9.925986 20.0
339 4 0.0 6.754 9.925986 26.696
340 4 0.0 9.21 1.417986 20.0
341 4 0.0 9.21 1.417986 26.696
342 4 0.0 9.21 5.671986 20.0
343 4 0.0 9.21 5.671986 26.696
344 4 0.0 9.21 9.925986 20.0
345 4 0.0 9.21 9.925986 26.696
346 4 0.0 11.666 1.417986 20.0
347 4 0.0 11.666 1.417986 26.696
348 4 0.0 11.666 5.671986 20.0
349 4 0.0 11.666 5.671986 26.696
350 4 0.0 11.666 9.925986 20.0
351 4 0.0 11.666 9.925986 26.696
352 1 0.0 6.910863 4.548286 38.869629
353 2 0.0 6.194298 4.758498 39.480612
354 1 0.0 5.415702 4.636304 38.924007
355 1 0.0 1.269954 11.512075 43.17942
356 2 0.0 1.780851 11.272308 42.396828
357 1 0.0 1.249734 10.55867 42.023211
358 1 0.0 7.672233 1.256811 57.750719
359 2 0.0 6.748954 1.240163 58.03042
360 1 0.0 6.287041 1.424629 57.203642
361 1 0.0 8.413595 1.477579 44.825273
362 2 0.0 8.576851 1.611598 43.883817
363 1 0.0 7.770123 1.258469 43.489554
364 1 0.0 8.355853 9.214756 58.788248
365 2 0.0 7.945255 9.639403 59.551162
366 1 0.0 8.357735 9.169973 60.286314
367 1 0.0 3.720598 11.512488 57.962251
368 2 0.0 2.994073 11.435437 57.33203
369 1 0.0 2.232473 11.340369 57.916737
370 1 0.0 3.890341 8.818699 49.356072
371 2 0.0 3.557946 7.913513 49.389321
372 1 0.0 4.209484 7.48279 49.955827
373 1 0.0 3.879798 1.249636 52.757133
374 2 0.0 2.915356 1.248879 52.785514
375 1 0.0 2.691333 1.685659 51.954857
376 1 0.0 5.484577 1.598402 49.822246
377 2 0.0 4.611792 1.248581 50.038637
378 1 0.0 4.177845 1.248902 49.176869
379 1 0.0 1.24997 2.180641 46.151393
380 2 0.0 1.848014 1.631181 46.672344
381 1 0.0 1.249301 1.2489 47.325305
382 1 0.0 1.260412 6.519743 43.057149
383 2 0.0 1.249305 7.262397 43.673019
384 1 0.0 1.267948 8.018369 43.073759
385 1 0.0 5.051457 7.569653 59.715177
386 2 0.0 5.455182 8.02849 60.461788
387 1 0.0 4.732139 8.591196 60.764317
388 1 0.0 1.769473 3.925928 43.81434
389 2 0.0 2.725329 3.928774 43.945808
390 1 0.0 3.050963 3.976273 43.038802
391 1 0.0 11.030569 10.102454 41.660021
392 2 0.0 10.454848 9.855454 40.926202
393 1 0.0 11.032956 9.288336 40.401682
394 1 0.0 10.353769 7.547692 42.418856
395 2 0.0 10.500229 6.923492 41.697831
396 1 0.0 11.030751 6.242426 42.128704
397 1 0.0 11.030495 5.978756 50.599558
398 2 0.0 10.884556 6.409615 49.748666
399 1 0.0 11.03014 5.683495 49.130193
400 1 0.0 1.24963 9.111287 50.288132
401 2 0.0 1.283708 10.03252 50.003311
402 1 0.0 1.248637 10.50267 50.845143
403 1 0.0 8.976105 5.477134 37.31007
404 2 0.0 9.116707 6.296949 36.821104
405 1 0.0 8.508039 6.193486 36.079638
406 1 0.0 1.878608 6.296772 61.617386
407 2 0.0 2.505475 6.159083 60.896947
408 1 0.0 2.855331 5.283573 61.101973
409 1 0.0 10.547799 11.437306 54.006803
410 2 0.0 9.709075 11.513157 54.4777
411 1 0.0 9.070063 11.453042 53.757281
412 1 0.0 4.997814 5.510384 41.839743
413 2 0.0 4.264523 6.137395 41.849511
414 1 0.0 3.784992 5.895527 41.047949
415 1 0.0 8.556844 5.880207 43.96584
416 2 0.0 8.606651 5.288355 44.726224
417 1 0.0 9.214681 4.609036 44.410345
418 1 0.0 1.250007 7.296195 37.595955
419 2 0.0 1.734668 8.004254 37.154695
420 1 0.0 1.248988 8.786979 37.441768
421 1 0.0 11.029978 4.428082 52.869638
422 2 0.0 10.164043 4.07402 53.105753
423 1 0.0 9.62863 4.875048 53.157139
424 1 0.0 1.354392 1.25056 59.519196
425 2 0.0 1.445738 1.569838 58.613287
426 1 0.0 1.247928 2.509005 58.712231
427 1 0.0 5.945465 3.855918 52.329332
428 2 0.0 5.001109 3.788248 52.515251
429 1 0.0 4.988056 3.781451 53.479999
430 1 0.0 7.619678 8.226812 33.770698
431 2 0.0 8.500751 8.496601 33.484552
432 1 0.0 9.066935 7.92736 34.019672
433 1 0.0 7.758372 9.11521 39.624575
434 2 0.0 8.475005 9.431662 39.061327
435 1 0.0 8.904481 8.607076 38.80333
436 1 0.0 5.991886 3.917669 58.321199
437 2 0.0 6.948246 3.976391 58.207706
438 1 0.0 7.268371 3.726625 59.082973
439 1 0.0 5.029118 1.251054 43.70872
440 2 0.0 4.103563 1.521899 43.677987
441 1 0.0 3.787464 1.249879 44.548067
442 1 0.0 7.072253 8.675051 55.488276
443 2 0.0 7.502256 8.301604 54.709438
444 1 0.0 7.732558 9.094248 54.209807
445 1 0.0 5.541506 11.511573 40.419995
446 2 0.0 4.603444 11.36482 40.248365
447 1 0.0 4.216717 11.507143 41.120799
448 1 0.0 6.245185 10.245032 46.707023
449 2 0.0 5.333485 10.557947 46.749949
450 1 0.0 5.452984 11.51447 46.79163
451 1 0.0 10.930883 11.421132 44.560107
452 2 0.0 11.030348 11.511895 45.515524
453 1 0.0 10.112196 11.513395 45.812085
454 1 0.0 1.250413 3.984088 40.961946
455 2 0.0 1.287463 3.115987 40.542444
456 1 0.0 2.237609 2.951603 40.508483
457 1 0.0 7.263662 11.512177 37.732612
458 2 0.0 6.537543 11.460528 37.099336
459 1 0.0 5.76598 11.511955 37.676397
460 1 0.0 10.422045 4.479949 35.099133
461 2 0.0 9.785112 4.16495 34.446411
462 1 0.0 9.123021 3.738548 35.003879
463 1 0.0 3.946422 4.876792 36.22219
464 2 0.0 4.588467 5.591335 36.31252
465 1 0.0 4.053242 6.291527 36.705225
466 1 0.0 1.248464 3.227274 53.716571
467 2 0.0 1.556434 4.131762 53.850773
468 1 0.0 2.381275 3.992031 54.331466
469 1 0.0 3.677746 6.789501 34.002283
470 2 0.0 4.448489 7.337117 34.194702
471 1 0.0 4.550589 7.832925 33.373299
472 1 0.0 3.829552 7.783707 56.776466
473 2 0.0 3.800964 8.48221 56.111463
474 1 0.0 4.378382 8.1272 55.424797
475 1 0.0 1.250261 4.539084 35.051487
476 2 0.0 1.249789 5.288466 35.659253
477 1 0.0 1.249978 6.03782 35.051451
478 1 0.0 2.159743 9.190788 33.329532
479 2 0.0 1.251599 9.283521 33.641987
480 1 0.0 1.249817 8.713981 34.420815
481 1 0.0 3.893628 11.485123 50.742942
482 2 0.0 3.594807 11.511815 49.82591
483 1 0.0 4.430735 11.514877 49.34407
484 1 0.0 3.502123 3.435902 33.923039
485 2 0.0 2.928962 2.679859 33.747427
486 1 0.0 2.807921 2.312178 34.631234
487 1 0.0 6.07064 1.296726 46.253162
488 2 0.0 6.163488 1.618742 47.157949
489 1 0.0 6.601311 2.467918 47.023167
490 1 0.0 7.834371 6.698003 52.085826
491 2 0.0 6.982328 6.611884 52.530302
492 1 0.0 6.377472 6.51649 51.784646
493 1 0.0 1.880548 5.38905 46.140179
494 2 0.0 2.722515 5.817645 45.944344
495 1 0.0 3.132891 5.858368 46.816632
496 1 0.0 5.236706 1.247838 38.654871
497 2 0.0 4.281117 1.298768 38.778193
498 1 0.0 4.11056 2.2364 38.627492
499 1 0.0 6.387569 4.838418 34.373977
500 2 0.0 6.620999 5.670471 33.944849
501 1 0.0 7.509335 5.483575 33.617918
502 1 0.0 5.983151 8.496871 44.601388
503 2 0.0 6.43532 7.657926 44.450831
504 1 0.0 5.866884 7.240707 43.792224
505 1 0.0 1.292901 7.597726 53.146621
506 2 0.0 1.892972 8.284028 52.830617
507 1 0.0 2.311293 8.575432 53.64979
508 1 0.0 2.730374 11.514138 47.17761
509 2 0.0 1.89702 11.48901 47.663247
510 1 0.0 1.249234 11.514346 46.948624
511 1 0.0 7.189231 1.249534 51.951629
512 2 0.0 8.071059 1.309964 52.338515
513 1 0.0 8.635383 1.251037 51.558118
514 1 0.0 11.030394 5.598561 39.133812
515 2 0.0 10.429236 5.067529 39.670066
516 1 0.0 11.030241 4.424508 40.065376
517 1 0.0 3.547529 11.022174 53.431061
518 2 0.0 2.856369 11.512576 53.892318
519 1 0.0 2.140509 11.503898 53.245462
520 1 0.0 1.251587 5.906984 55.949054
521 2 0.0 1.276621 6.675541 56.531848
522 1 0.0 1.249984 7.404943 55.900804
523 1 0.0 11.032764 8.462777 52.811653
524 2 0.0 10.591687 7.605508 52.773002
525 1 0.0 9.976013 7.664749 53.513535
526 1 0.0 7.735749 7.157033 41.67318
527 2 0.0 7.858048 6.281593 41.286397
528 1 0.0 8.122519 6.497735 40.384016
529 1 0.0 7.650497 3.734347 42.299533
530 2 0.0 8.537351 3.597268 41.945057
531 1 0.0 8.373807 3.596382 40.99416
532 1 0.0 10.222739 1.25 54.519965
533 2 0.0 11.03 1.622221 54.895111
534 1 0.0 11.022217 1.255783 55.787645
535 1 0.0 11.030205 2.453623 50.948249
536 2 0.0 11.0264 3.237403 50.385552
537 1 0.0 11.030338 2.848615 49.5025
538 1 0.0 11.030864 7.517877 59.666924
539 2 0.0 10.992679 7.177614 58.764862
540 1 0.0 11.014526 7.989858 58.244539
541 1 0.0 3.881672 2.612013 59.506448
542 2 0.0 4.540037 1.907306 59.536419
543 1 0.0 4.155416 1.250108 58.943873
544 1 0.0 6.191245 6.075541 55.658436
545 2 0.0 5.549922 5.697072 56.271967
546 1 0.0 4.839648 5.428194 55.676846
547 1 0.0 5.126283 9.564578 35.657678
548 2 0.0 5.232844 9.089172 36.490497
549 1 0.0 4.321751 9.026006 36.80174
550 1 0.0 10.863588 3.006833 37.378889
551 2 0.0 10.985816 2.076512 37.603649
552 1 0.0 11.030163 2.108524 38.566957
553 1 0.0 4.920377 4.718593 49.542574
554 2 0.0 3.969769 4.756016 49.7035
555 1 0.0 3.791164 3.872603 50.047935
556 1 0.0 1.247327 7.491953 47.970985
557 2 0.0 1.317179 7.903402 47.101052
558 1 0.0 1.682867 8.769255 47.319053
559 1 0.0 2.510127 11.171623 38.454249
560 2 0.0 2.052712 11.51205 39.232603
561 1 0.0 1.250022 10.976741 39.241883
562 1 0.0 8.710531 9.253306 51.571327
563 2 0.0 8.674314 8.90392 50.672677
564 1 0.0 9.607931 8.757247 50.478253
565 1 0.0 9.060262 11.512311 57.330745
566 2 0.0 8.248283 11.456185 56.812581
567 1 0.0 7.570812 11.511908 57.497331
568 1 0.0 11.029495 9.307549 47.386472
569 2 0.0 11.031124 8.55759 47.993524
570 1 0.0 11.018256 7.808855 47.385097
571 1 0.0 8.254153 4.27692 50.851632
572 2 0.0 8.309074 3.599229 50.167035
573 1 0.0 7.400964 3.570123 49.842317
574 1 0.0 4.246964 2.754858 55.927358
575 2 0.0 4.247104 1.951108 55.39356
576 1 0.0 3.330731 1.659551 55.472352
577 1 0.0 2.678241 10.802661 35.496303
578 2 0.0 2.032109 11.5161 35.563176
579 1 0.0 1.249 11.046925 35.875534
580 1 0.0 2.571549 9.7139 44.802109
581 2 0.0 3.383157 9.384762 45.206972
582 1 0.0 3.281496 8.430248 45.109391
583 1 0.0 8.281989 2.177508 38.623711
584 2 0.0 7.984666 1.267759 38.745812
585 1 0.0 7.783671 1.248864 39.689315
586 1 0.0 7.112434 3.51387 55.205411
587 2 0.0 7.417624 2.963713 54.473878
588 1 0.0 7.647855 2.142427 54.924917
589 1 0.0 8.752281 11.516479 42.302434
590 2 0.0 8.120457 11.065853 41.72912
591 1 0.0 8.261977 11.513469 40.88617
592 1 0.0 11.032485 9.911059 56.278826
593 2 0.0 10.719779 9.243832 55.655949
594 1 0.0 9.831314 9.063793 55.986356
595 1 0.0 9.666565 8.992105 44.80868
596 2 0.0 8.783197 9.364242 44.698551
597 1 0.0 8.609805 9.192731 43.765024
598 1 0.0 3.774225 5.541887 58.366724
599 2 0.0 3.127789 5.093637 57.808024
600 1 0.0 2.37927 4.995505 58.408892
601 1 0.0 4.872188 11.337561 60.766659
602 2 0.0 5.806897 11.183888 60.583198
603 1 0.0 5.879471 11.471155 59.664958
604 1 0.0 10.87632 1.570173 46.043766
605 2 0.0 11.030402 2.17259 45.305994
606 1 0.0 11.027145 3.03127 45.746007
607 1 0.0 10.203227 1.248888 41.696606
608 2 0.0 10.669875 1.989273 41.290376
609 1 0.0 11.030958 2.444014 42.060949
610 1 0.0 10.39418 2.602156 59.262043
611 2 0.0 10.967173 3.294912 59.61236
612 1 0.0 11.029947 3.899348 58.862913
613 1 0.0 6.440369 5.406201 46.414692
614 2 0.0 5.663916 5.415162 45.841985
615 1 0.0 5.930339 4.814033 45.135857
616 1 0.0 4.708694 8.792861 52.321
617 2 0.0 5.622495 9.075573 52.447469
618 1 0.0 5.910475 9.230496 51.539714
619 1 0.0 9.857489 11.511943 60.182549
620 2 0.0 10.416769 10.905637 59.681997
621 1 0.0 11.030262 11.511787 59.249375
622 1 0.0 1.256003 8.38558 59.765041
623 2 0.0 1.580691 8.376924 58.856495
624 1 0.0 2.463359 8.75346 58.956854
625 1 0.0 1.384214 4.745692 48.767238
626 2 0.0 1.249569 3.874292 48.375464
627 1 0.0 1.253916 3.303405 49.153296
628 1 0.0 11.030053 10.31044 37.822109
629 2 0.0 10.77985 11.242282 37.817379
630 1 0.0 10.876952 11.479283 38.747623
631 1 0.0 2.007408 3.89944 37.908095
632 2 0.0 1.821437 4.722757 38.375553
633 1 0.0 2.696244 4.970303 38.698643
634 1 0.0 6.298558 11.504644 44.138264
635 2 0.0 5.556028 11.513606 43.522209
636 1 0.0 4.800202 11.475741 44.120747
637 1 0.0 6.133053 11.328008 54.315197
638 2 0.0 5.985675 11.51311 55.250596
639 1 0.0 5.355836 10.823626 55.493221
640 1 0.0 10.823775 6.503788 55.857441
641 2 0.0 11.036828 5.665595 56.285219
642 1 0.0 10.974096 5.044803 55.54926
643 1 0.0 5.578592 5.083929 60.776814
644 2 0.0 6.041868 4.522568 61.410219
645 1 0.0 5.392677 4.445165 62.119805
646 1 0.0 6.03143 9.293864 41.970176
647 2 0.0 5.171341 8.984178 41.661477
648 1 0.0 5.415437 8.446218 40.898608
649 1 0.0 8.435006 7.300484 46.592196
650 2 0.0 7.802827 7.97824 46.860433
651 1 0.0 8.370575 8.610381 47.317613
652 1 0.0 5.953412 3.055918 36.687931
653 2 0.0 6.048289 2.22052 36.214579
654 1 0.0 5.591637 2.40834 35.385636
655 1 0.0 7.154935 11.512815 48.969493
656 2 0.0 7.091621 10.95734 49.755873
657 1 0.0 7.509256 11.512144 50.425744
658 1 0.0 2.079004 1.249871 37.06074
659 2 0.0 1.247084 1.282037 37.548415
660 1 0.0 1.551104 1.246162 38.463423
661 1 0.0 8.177494 6.575342 49.29765
662 2 0.0 7.426597 6.143043 48.873122
663 1 0.0 6.708068 6.757524 49.065688
664 1 0.0 8.933165 5.755536 59.903886
665 2 0.0 8.255503 6.178639 60.444914
666 1 0.0 7.673088 6.556657 59.774952
667 3 0.0 11.034228 6.609127 44.910641
668 3 0.0 8.616227 1.249975 36.056569
669 3 0.0 1.247743 5.404094 51.433407
670 3 0.0 8.872152 4.064468 47.174304
671 3 0.0 1.248279 6.660965 40.311622
672 3 0.0 5.070068 7.789343 47.096152
673 3 0.0 9.872757 11.513715 48.551554
674 3 0.0 9.330454 3.233963 56.806307
675 3 0.0 5.79347 9.407927 57.809479
676 3 0.0 1.249869 10.141563 55.645337
677 2 0.0 6.716373 7.215282 37.898318
678 1 0.0 5.931511 7.296661 38.455565
679 2 0.0 8.54855 9.894424 35.869952
680 1 0.0 7.971355 9.249229 36.298584
681 2 0.0 1.248097 1.245214 43.492973
682 1 0.0 1.553714 1.273937 42.577042
683 2 0.0 4.042559 3.265206 46.400688
684 1 0.0 4.006198 3.310293 47.36495
685 2 0.0 8.469881 6.031213 57.197074
686 1 0.0 8.456002 6.996674 57.167945
687 2 0.0 3.041064 8.588777 39.518225
688 1 0.0 2.750133 8.963865 40.359547
689 2 0.0 9.077533 1.491782 48.122238
690 1 0.0 8.378842 1.248199 48.74325
691 2 0.0 11.030258 10.945204 51.345127
692 1 0.0 10.251084 11.511883 51.27499
693 2 0.0 5.656113 2.192163 41.20242
694 1 0.0 4.942701 2.842958 41.176636
695 2 0.0 3.659805 6.204174 53.318008
696 1 0.0 3.701992 6.235126 52.353427
697 4 0.0 0.614 0.709014 66.696
698 4 0.0 0.614 0.709014 73.392
699 4 0.0 0.614 4.963014 66.696
700 4 0.0 0.614 4.963014 73.392
701 4 0.0 0.614 9.217015 66.696
702 4 0.0 0.614 9.217015 73.392
703 4 0.0 3.07 0.709014 66.696
704 4 0.0 3.07 0.709014 73.392
705 4 0.0 3.07 4.963014 66.696
706 4 0.0 3.07 4.963014 73.392
707 4 0.0 3.07 9.217015 66.696
708 4 0.0 3.07 9.217015 73.392
709 4 0.0 5.526 0.709014 66.696
710 4 0.0 5.526 0.709014 73.392
711 4 0.0 5.526 4.963014 66.696
712 4 0.0 5.526 4.963014 73.392
713 4 0.0 5.526 9.217015 66.696
714 4 0.0 5.526 9.217015 73.392
715 4 0.0 7.982 0.709014 66.696
716 4 0.0 7.982 0.709014 73.392
717 4 0.0 7.982 4.963014 66.696
718 4 0.0 7.982 4.963014 73.392
719 4 0.0 7.982 9.217015 66.696
720 4 0.0 7.982 9.217015 73.392
721 4 0.0 10.438 0.709014 66.696
722 4 0.0 10.438 0.709014 73.392
723 4 0.0 10.438 4.963014 66.696
724 4 0.0 10.438 4.963014 73.392
725 4 0.0 10.438 9.217015 66.696
726 4 0.0 10.438 9.217015 73.392
727 4 0.0 0.614 3.544986 66.696
728 4 0.0 0.614 3.544986 73.392
729 4 0.0 0.614 7.798986 66.696
730 4 0.0 0.614 7.798986 73.392
731 4 0.0 0.614 12.052986 66.696
732 4 0.0 0.614 12.052986 73.392
733 4 0.0 3.07 3.544986 66.696
734 4 0.0 3.07 3.544986 73.392
735 4 0.0 3.07 7.798986 66.696
736 4 0.0 3.07 7.798986 73.392
737 4 0.0 3.07 12.052986 66.696
738 4 0.0 3.07 12.052986 73.392
739 4 0.0 5.526 3.544986 66.696
740 4 0.0 5.526 3.544986 73.392
741 4 0.0 5.526 7.798986 66.696
742 4 0.0 5.526 7.798986 73.392
743 4 0.0 5.526 12.052986 66.696
744 4 0.0 5.526 12.052986 73.392
745 4 0.0 7.982 3.544986 66.696
746 4 0.0 7.982 3.544986 73.392
747 4 0.0 7.982 7.798986 66.696
748 4 0.0 7.982 7.798986 73.392
749 4 0.0 7.982 12.052986 66.696
750 4 0.0 7.982 12.052986 73.392
751 4 0.0 10.438 3.544986 66.696
752 4 0.0 10.438 3.544986 73.392
753 4 0.0 10.438 7.798986 66.696
754 4 0.0 10.438 7.798986 73.392
755 4 0.0 10.438 12.052986 66.696
756 4 0.0 10.438 12.052986 73.392
757 4 0.0 0.614 2.836014 70.044
758 4 0.0 0.614 7.090014 70.044
759 4 0.0 0.614 11.344015 70.044
760 4 0.0 3.07 2.836014 70.044
761 4 0.0 3.07 7.090014 70.044
762 4 0.0 3.07 11.344015 70.044
763 4 0.0 5.526 2.836014 70.044
764 4 0.0 5.526 7.090014 70.044
765 4 0.0 5.526 11.344015 70.044
766 4 0.0 7.982 2.836014 70.044
767 4 0.0 7.982 7.090014 70.044
768 4 0.0 7.982 11.344015 70.044
769 4 0.0 10.438 2.836014 70.044
770 4 0.0 10.438 7.090014 70.044
771 4 0.0 10.438 11.344015 70.044
772 4 0.0 0.614 1.417986 70.044
773 4 0.0 0.614 5.671986 70.044
774 4 0.0 0.614 9.925986 70.044
775 4 0.0 3.07 1.417986 70.044
776 4 0.0 3.07 5.671986 70.044
777 4 0.0 3.07 9.925986 70.044
778 4 0.0 5.526 1.417986 70.044
779 4 0.0 5.526 5.671986 70.044
780 4 0.0 5.526 9.925986 70.044
781 4 0.0 7.982 1.417986 70.044
782 4 0.0 7.982 5.671986 70.044
783 4 0.0 7.982 9.925986 70.044
784 4 0.0 10.438 1.417986 70.044
785 4 0.0 10.438 5.671986 70.044
786 4 0.0 10.438 9.925986 70.044
787 4 0.0 1.842 0.709014 70.044
788 4 0.0 1.842 4.963014 70.044
789 4 0.0 1.842 9.217015 70.044
790 4 0.0 4.298 0.709014 70.044
791 4 0.0 4.298 4.963014 70.044
792 4 0.0 4.298 9.217015 70.044
793 4 0.0 6.754 0.709014 70.044
794 4 0.0 6.754 4.963014 70.044
795 4 0.0 6.754 9.217015 70.044
796 4 0.0 9.21 0.709014 70.044
797 4 0.0 9.21 4.963014 70.044
798 4 0.0 9.21 9.217015 70.044
799 4 0.0 11.666 0.709014 70.044
800 4 0.0 11.666 4.963014 70.044
801 4 0.0 11.666 9.217015 70.044
802 4 0.0 1.842 3.544986 70.044
803 4 0.0 1.842 7.798986 70.044
804 4 0.0 1.842 12.052986 70.044
805 4 0.0 4.298 3.544986 70.044
806 4 0.0 4.298 7.798986 70.044
807 4 0.0 4.298 12.052986 70.044
808 4 0.0 6.754 3.544986 70.044
809 4 0.0 6.754 7.798986 70.044
810 4 0.0 6.754 12.052986 70.044
811 4 0.0 9.21 3.544986 70.044
812 4 0.0 9.21 7.798986 70.044
813 4 0.0 9.21 12.052986 70.044
814 4 0.0 11.666 3.544986 70.044
815 4 0.0 11.666 7.798986 70.044
816 4 0.0 11.666 12.052986 70.044
817 4 0.0 1.842 2.836014 66.696
818 4 0.0 1.842 2.836014 73.392
819 4 0.0 1.842 7.090014 66.696
820 4 0.0 1.842 7.090014 73.392
821 4 0.0 1.842 11.344015 66.696
822 4 0.0 1.842 11.344015 73.392
823 4 0.0 4.298 2.836014 66.696
824 4 0.0 4.298 2.836014 73.392
825 4 0.0 4.298 7.090014 66.696
826 4 0.0 4.298 7.090014 73.392
827 4 0.0 4.298 11.344015 66.696
828 4 0.0 4.298 11.344015 73.392
829 4 0.0 6.754 2.836014 66.696
830 4 0.0 6.754 2.836014 73.392
831 4 0.0 6.754 7.090014 66.696
832 4 0.0 6.754 7.090014 73.392
833 4 0.0 6.754 11.344015 66.696
834 4 0.0 6.754 11.344015 73.392
835 4 0.0 9.21 2.836014 66.696
836 4 0.0 9.21 2.836014 73.392
837 4 0.0 9.21 7.090014 66.696
838 4 0.0 9.21 7.090014 73.392
839 4 0.0 9.21 11.344015 66.696
840 4 0.0 9.21 11.344015 73.392
841 4 0.0 11.666 2.836014 66.696
842 4 0.0 11.666 2.836014 73.392
843 4 0.0 11.666 7.090014 66.696