LAMMPS Description

  1002 atoms
  4 atom types
  0.0 12.28 xlo xhi
  0.0 12.762 ylo yhi
  0.0 65.892 zlo zhi


Masses

1 1.008 # H
2 15.999 # O
3 22.99 # Na
4 12.011 # C

Atoms

1 1 0.0 1.249998 10.560489 6.019663
2 2 0.0 1.330806 11.501656 5.823122
3 1 0.0 1.250124 11.511976 4.861698
4 1 0.0 1.250031 3.921502 8.676499
5 2 0.0 1.432315 3.882248 7.729828
6 1 0.0 1.250596 4.788888 7.454266
7 1 0.0 6.219558 10.716271 9.893038
8 2 0.0 6.731301 11.511794 9.702732
9 1 0.0 7.374189 11.511894 10.42221
10 1 0.0 10.135444 11.511276 6.773103
11 2 0.0 11.028896 11.283822 6.488566
12 1 0.0 11.003591 11.511975 5.551411
13 1 0.0 2.942857 1.250334 10.895843
14 2 0.0 2.781502 2.133617 11.249013
15 1 0.0 2.959832 2.690582 10.481588
16 1 0.0 7.866349 2.498839 7.334604
17 2 0.0 7.957581 1.545536 7.452266
18 1 0.0 8.137496 1.250021 6.551569
19 1 0.0 10.94586 1.250017 7.542305
20 2 0.0 11.029761 1.432371 8.486053
21 1 0.0 11.002634 2.396648 8.505749
22 1 0.0 1.253652 7.87801 6.784326
23 2 0.0 2.145784 7.524726 6.885543
24 1 0.0 2.688 8.263673 6.584027
25 1 0.0 2.017204 8.878935 3.981189
26 2 0.0 1.250676 9.132565 3.452928
27 1 0.0 1.486938 8.790614 2.582179
28 1 0.0 8.768726 7.086744 11.036546
29 2 0.0 7.958991 6.660851 10.730118
30 1 0.0 7.281826 7.274713 11.03927
31 1 0.0 2.688573 1.250045 7.204846
32 2 0.0 2.731706 1.254119 8.168733
33 1 0.0 1.797484 1.249926 8.409906
34 1 0.0 4.659706 8.250086 3.650265
35 2 0.0 4.852248 8.985006 3.055476
36 1 0.0 4.214475 8.83954 2.346224
37 1 0.0 5.681993 1.415703 10.781529
38 2 0.0 5.53078 1.854267 9.935509
39 1 0.0 5.960777 1.250025 9.318299
40 1 0.0 10.900283 8.557755 9.403105
41 2 0.0 11.029862 8.947712 8.530124
42 1 0.0 10.785759 8.218096 7.947864
43 1 0.0 11.03001 7.070899 4.459371
44 2 0.0 11.027937 7.168694 5.419259
45 1 0.0 11.030037 6.249661 5.713077
46 1 0.0 3.937757 10.361291 5.252401
47 2 0.0 4.204158 11.28843 5.232491
48 1 0.0 4.077958 11.511971 4.302407
49 1 0.0 9.523661 9.376697 4.71232
50 2 0.0 9.222202 9.212747 5.614094
51 1 0.0 8.270345 9.348597 5.533673
52 1 0.0 2.825982 11.511969 11.0635
53 2 0.0 3.770098 11.313345 11.051327
54 1 0.0 3.771212 10.349106 11.08591
55 1 0.0 5.846718 2.845621 1.250124
56 2 0.0 5.189933 3.205594 1.858405
57 1 0.0 4.532234 3.56558 1.25112
58 1 0.0 9.72886 3.874809 5.322171
59 2 0.0 10.084708 3.65059 6.190533
60 1 0.0 11.019441 3.514673 5.993674
61 1 0.0 1.255342 5.251173 4.743174
62 2 0.0 1.250187 6.205496 4.601072
63 1 0.0 1.257141 6.263474 3.637981
64 1 0.0 5.838852 4.933942 11.018623
65 2 0.0 6.448332 4.373028 10.523785
66 1 0.0 6.967766 3.971241 11.230686
67 1 0.0 3.919048 4.521808 8.689684
68 2 0.0 3.705836 5.230509 9.308747
69 1 0.0 3.407587 5.930341 8.715252
70 1 0.0 10.965416 3.678422 10.937669
71 2 0.0 10.695243 4.599241 11.037928
72 1 0.0 9.738165 4.517227 11.128648
73 1 0.0 3.889217 6.185219 5.292638
74 2 0.0 3.87595 5.564542 6.031243
75 1 0.0 3.807515 4.715997 5.577104
76 1 0.0 1.250007 11.137212 1.251618
77 2 0.0 1.283867 11.510662 2.140629
78 1 0.0 2.231854 11.511579 2.320279
79 1 0.0 3.725687 6.141449 2.153609
80 2 0.0 3.395669 6.067052 1.250001
81 1 0.0 2.670061 6.703014 1.25
82 1 0.0 6.472778 4.277119 5.06638
83 2 0.0 6.126633 4.279414 4.165752
84 1 0.0 6.097037 5.222943 3.966177
85 1 0.0 2.957521 1.250936 2.737368
86 2 0.0 2.304193 1.251687 2.027357
87 1 0.0 2.853553 1.416125 1.251396
88 1 0.0 8.045177 8.250911 8.044329
89 2 0.0 8.213087 8.700934 8.881132
90 1 0.0 8.37141 9.607551 8.591421
91 1 0.0 5.073221 2.627086 7.098921
92 2 0.0 5.249027 2.156821 6.274969
93 1 0.0 5.372413 1.251439 6.584828
94 1 0.0 6.115175 6.408609 8.705614
95 2 0.0 6.082375 5.989917 7.836951
96 1 0.0 6.718921 5.271871 7.937807
97 1 0.0 8.069229 11.356014 3.487178
98 2 0.0 7.352972 11.511723 4.11462
99 1 0.0 6.706252 10.847392 3.847467
100 1 0.0 4.048502 11.320834 8.312982
101 2 0.0 3.258183 11.096037 7.807201
102 1 0.0 2.562107 11.51201 8.330076
103 1 0.0 8.320144 6.792947 4.356285
104 2 0.0 8.363197 6.270475 5.166299
105 1 0.0 7.665766 6.671285 5.699117
106 1 0.0 8.665113 9.268766 1.25003
107 2 0.0 7.81017 9.290659 1.696736
108 1 0.0 7.987954 8.7747 2.492433
109 1 0.0 1.648648 5.964117 10.978693
110 2 0.0 1.751134 6.923077 11.007807
111 1 0.0 2.702196 7.017797 11.139953
112 1 0.0 11.029965 10.352151 2.071692
113 2 0.0 11.02933 11.091801 1.452118
114 1 0.0 10.182338 11.511988 1.644471
115 1 0.0 9.583035 1.252468 3.936563
116 2 0.0 10.154403 1.251256 4.714053
117 1 0.0 11.028009 1.360747 4.319365
118 1 0.0 6.904666 1.637685 4.133928
119 2 0.0 6.43725 1.252491 3.382862
120 1 0.0 5.523838 1.255949 3.6937
121 1 0.0 9.545543 6.639185 1.249999
122 2 0.0 10.169196 7.054651 1.857782
123 1 0.0 10.792847 7.470116 1.249998
124 1 0.0 10.983027 3.767377 2.735499
125 2 0.0 11.029734 4.469432 2.075279
126 1 0.0 10.980322 3.970932 1.250653
127 1 0.0 2.157168 3.93162 2.485162
128 2 0.0 1.251408 3.748322 2.207758
129 1 0.0 1.346397 3.68009 1.250013
130 1 0.0 4.890464 11.511974 1.655904
131 2 0.0 5.555388 10.942187 1.250721
132 1 0.0 6.333977 11.512055 1.252814
133 1 0.0 10.031592 10.844026 10.653435
134 2 0.0 10.103352 11.511993 9.960886
135 1 0.0 11.029999 11.43351 9.703749
136 1 0.0 8.708578 2.236563 10.001143
137 2 0.0 9.018792 1.395208 10.357294
138 1 0.0 8.405602 1.250033 11.087962
139 1 0.0 5.463833 8.211704 6.279541
140 2 0.0 5.306555 8.542843 7.172045
141 1 0.0 5.69409 9.425367 7.128196
142 1 0.0 8.375535 3.071742 2.294191
143 2 0.0 8.325099 3.927177 1.850747
144 1 0.0 8.379756 4.540217 2.593814
145 1 0.0 2.140753 2.639993 4.920675
146 2 0.0 1.250752 2.352405 5.157627
147 1 0.0 1.250038 1.436489 4.854229
148 1 0.0 6.108016 7.178808 1.249999
149 2 0.0 6.791615 6.503526 1.337402
150 1 0.0 6.280251 5.690002 1.249995
151 1 0.0 2.314295 8.948032 9.223173
152 2 0.0 1.364661 9.116982 9.247788
153 1 0.0 1.250052 9.481005 10.133963
154 1 0.0 10.819775 5.498363 8.346715
155 2 0.0 9.91604 5.182562 8.467077
156 1 0.0 9.407722 5.843962 7.982189
157 3 0.0 7.410891 11.50825 6.914562
158 2 0.0 11.028955 1.249996 1.585817
159 1 0.0 10.12317 1.249995 1.250096
160 4 0.0 0.614 0.709014 13.75
161 4 0.0 0.614 0.709014 20.446
162 4 0.0 0.614 4.963014 13.75
163 4 0.0 0.614 4.963014 20.446
164 4 0.0 0.614 9.217015 13.75
165 4 0.0 0.614 9.217015 20.446
166 4 0.0 3.07 0.709014 13.75
167 4 0.0 3.07 0.709014 20.446
168 4 0.0 3.07 4.963014 13.75
169 4 0.0 3.07 4.963014 20.446
170 4 0.0 3.07 9.217015 13.75
171 4 0.0 3.07 9.217015 20.446
172 4 0.0 5.526 0.709014 13.75
173 4 0.0 5.526 0.709014 20.446
174 4 0.0 5.526 4.963014 13.75
175 4 0.0 5.526 4.963014 20.446
176 4 0.0 5.526 9.217015 13.75
177 4 0.0 5.526 9.217015 20.446
178 4 0.0 7.982 0.709014 13.75
179 4 0.0 7.982 0.709014 20.446
180 4 0.0 7.982 4.963014 13.75
181 4 0.0 7.982 4.963014 20.446
182 4 0.0 7.982 9.217015 13.75
183 4 0.0 7.982 9.217015 20.446
184 4 0.0 10.438 0.709014 13.75
185 4 0.0 10.438 0.709014 20.446
186 4 0.0 10.438 4.963014 13.75
187 4 0.0 10.438 4.963014 20.446
188 4 0.0 10.438 9.217015 13.75
189 4 0.0 10.438 9.217015 20.446
190 4 0.0 0.614 3.544986 13.75
191 4 0.0 0.614 3.544986 20.446
192 4 0.0 0.614 7.798986 13.75
193 4 0.0 0.614 7.798986 20.446
194 4 0.0 0.614 12.052986 13.75
195 4 0.0 0.614 12.052986 20.446
196 4 0.0 3.07 3.544986 13.75
197 4 0.0 3.07 3.544986 20.446
198 4 0.0 3.07 7.798986 13.75
199 4 0.0 3.07 7.798986 20.446
200 4 0.0 3.07 12.052986 13.75
201 4 0.0 3.07 12.052986 20.446
202 4 0.0 5.526 3.544986 13.75
203 4 0.0 5.526 3.544986 20.446
204 4 0.0 5.526 7.798986 13.75
205 4 0.0 5.526 7.798986 20.446
206 4 0.0 5.526 12.052986 13.75
207 4 0.0 5.526 12.052986 20.446
208 4 0.0 7.982 3.544986 13.75
209 4 0.0 7.982 3.544986 20.446
210 4 0.0 7.982 7.798986 13.75
211 4 0.0 7.982 7.798986 20.446
212 4 0.0 7.982 12.052986 13.75
213 4 0.0 7.982 12.052986 20.446
214 4 0.0 10.438 3.544986 13.75
215 4 0.0 10.438 3.544986 20.446
216 4 0.0 10.438 7.798986 13.75
217 4 0.0 10.438 7.798986 20.446
218 4 0.0 10.438 12.052986 13.75
219 4 0.0 10.438 12.052986 20.446
220 4 0.0 0.614 2.836014 17.098
221 4 0.0 0.614 7.090014 17.098
222 4 0.0 0.614 11.344015 17.098
223 4 0.0 3.07 2.836014 17.098
224 4 0.0 3.07 7.090014 17.098
225 4 0.0 3.07 11.344015 17.098
226 4 0.0 5.526 2.836014 17.098
227 4 0.0 5.526 7.090014 17.098
228 4 0.0 5.526 11.344015 17.098
229 4 0.0 7.982 2.836014 17.098
230 4 0.0 7.982 7.090014 17.098
231 4 0.0 7.982 11.344015 17.098
232 4 0.0 10.438 2.836014 17.098
233 4 0.0 10.438 7.090014 17.098
234 4 0.0 10.438 11.344015 17.098
235 4 0.0 0.614 1.417986 17.098
236 4 0.0 0.614 5.671986 17.098
237 4 0.0 0.614 9.925986 17.098
238 4 0.0 3.07 1.417986 17.098
239 4 0.0 3.07 5.671986 17.098
240 4 0.0 3.07 9.925986 17.098
241 4 0.0 5.526 1.417986 17.098
242 4 0.0 5.526 5.671986 17.098
243 4 0.0 5.526 9.925986 17.098
244 4 0.0 7.982 1.417986 17.098
245 4 0.0 7.982 5.671986 17.098
246 4 0.0 7.982 9.925986 17.098
247 4 0.0 10.438 1.417986 17.098
248 4 0.0 10.438 5.671986 17.098
249 4 0.0 10.438 9.925986 17.098
250 4 0.0 1.842 0.709014 17.098
251 4 0.0 1.842 4.963014 17.098
252 4 0.0 1.842 9.217015 17.098
253 4 0.0 4.298 0.709014 17.098
254 4 0.0 4.298 4.963014 17.098
255 4 0.0 4.298 9.217015 17.098
256 4 0.0 6.754 0.709014 17.098
257 4 0.0 6.754 4.963014 17.098
258 4 0.0 6.754 9.217015 17.098
259 4 0.0 9.21 0.709014 17.098
260 4 0.0 9.21 4.963014 17.098
261 4 0.0 9.21 9.217015 17.098
262 4 0.0 11.666 0.709014 17.098
263 4 0.0 11.666 4.963014 17.098
264 4 0.0 11.666 9.217015 17.098
265 4 0.0 1.842 3.544986 17.098
266 4 0.0 1.842 7.798986 17.098
267 4 0.0 1.842 12.052986 17.098
268 4 0.0 4.298 3.544986 17.098
269 4 0.0 4.298 7.798986 17.098
270 4 0.0 4.298 12.052986 17.098
271 4 0.0 6.754 3.544986 17.098
272 4 0.0 6.754 7.798986 17.098
273 4 0.0 6.754 12.052986 17.098
274 4 0.0 9.21 3.544986 17.098
275 4 0.0 9.21 7.798986 17.098
276 4 0.0 9.21 12.052986 17.098
277 4 0.0 11.666 3.544986 17.098
278 4 0.0 11.666 7.798986 17.098
279 4 0.0 11.666 12.052986 17.098
280 4 0.0 1.842 2.836014 13.75
281 4 0.0 1.842 2.836014 20.446
282 4 0.0 1.842 7.090014 13.75
283 4 0.0 1.842 7.090014 20.446
284 4 0.0 1.842 11.344015 13.75
285 4 0.0 1.842 11.344015 20.446
286 4 0.0 4.298 2.836014 13.75
287 4 0.0 4.298 2.836014 20.446
288 4 0.0 4.298 7.090014 13.75
289 4 0.0 4.298 7.090014 20.446
290 4 0.0 4.298 11.344015 13.75
291 4 0.0 4.298 11.344015 20.446
292 4 0.0 6.754 2.836014 13.75
293 4 0.0 6.754 2.836014 20.446
294 4 0.0 6.754 7.090014 13.75
295 4 0.0 6.754 7.090014 20.446
296 4 0.0 6.754 11.344015 13.75
297 4 0.0 6.754 11.344015 20.446
298 4 0.0 9.21 2.836014 13.75
299 4 0.0 9.21 2.836014 20.446
300 4 0.0 9.21 7.090014 13.75
301 4 0.0 9.21 7.090014 20.446
302 4 0.0 9.21 11.344015 13.75
303 4 0.0 9.21 11.344015 20.446
304 4 0.0 11.666 2.836014 13.75
305 4 0.0 11.666 2.836014 20.446
306 4 0.0 11.666 7.090014 13.75
307 4 0.0 11.666 7.090014 20.446
308 4 0.0 11.666 11.344015 13.75
309 4 0.0 11.666 11.344015 20.446
310 4 0.0 1.842 1.417986 13.75
311 4 0.0 1.842 1.417986 20.446
312 4 0.0 1.842 5.671986 13.75
313 4 0.0 1.842 5.671986 20.446
314 4 0.0 1.842 9.925986 13.75
315 4 0.0 1.842 9.925986 20.446
316 4 0.0 4.298 1.417986 13.75
317 4 0.0 4.298 1.417986 20.446
318 4 0.0 4.298 5.671986 13.75
319 4 0.0 4.298 5.671986 20.446
320 4 0.0 4.298 9.925986 13.75
321 4 0.0 4.298 9.925986 20.446
322 4 0.0 6.754 1.417986 13.75
323 4 0.0 6.754 1.417986 20.446
324 4 0.0 6.754 5.671986 13.75
325 4 0.0 6.754 5.671986 20.446
326 4 0.0 6.754 9.925986 13.75
327 4 0.0 6.754 9.925986 20.446
328 4 0.0 9.21 1.417986 13.75
329 4 0.0 9.21 1.417986 20.446
330 4 0.0 9.21 5.671986 13.75
331 4 0.0 9.21 5.671986 20.446
332 4 0.0 9.21 9.925986 13.75
333 4 0.0 9.21 9.925986 20.446
334 4 0.0 11.666 1.417986 13.75
335 4 0.0 11.666 1.417986 20.446
336 4 0.0 11.666 5.671986 13.75
337 4 0.0 11.666 5.671986 20.446
338 4 0.0 11.666 9.925986 13.75
339 4 0.0 11.666 9.925986 20.446
340 1 0.0 6.186903 8.360535 31.7462
341 2 0.0 6.632192 7.599037 31.355314
342 1 0.0 6.273082 6.869849 31.875197
343 1 0.0 1.262859 4.109547 33.713774
344 2 0.0 1.250352 4.299156 34.659737
345 1 0.0 1.260948 5.263906 34.669632
346 1 0.0 1.265781 1.662104 40.08131
347 2 0.0 1.264549 2.509346 39.619646
348 1 0.0 1.402106 3.131258 40.344391
349 1 0.0 11.029993 4.083204 29.015303
350 2 0.0 10.57362 4.408586 29.800671
351 1 0.0 11.030199 5.242514 29.96515
352 1 0.0 11.010342 3.68277 39.726266
353 2 0.0 11.015074 3.824561 38.771893
354 1 0.0 10.847547 4.772786 38.710602
355 1 0.0 8.279563 6.951593 34.635276
356 2 0.0 8.420375 6.549663 33.769495
357 1 0.0 8.625275 7.31862 33.223899
358 1 0.0 4.365881 6.198837 26.253842
359 2 0.0 3.423897 6.407015 26.237012
360 1 0.0 3.21779 6.473429 27.177258
361 1 0.0 6.020248 1.572664 23.830366
362 2 0.0 5.110328 1.251962 23.818148
363 1 0.0 4.884136 1.258837 24.756094
364 1 0.0 8.735823 7.070682 41.043641
365 2 0.0 8.554597 7.794799 41.655005
366 1 0.0 8.834322 8.56291 41.14245
367 1 0.0 11.02989 1.271318 42.02076
368 2 0.0 10.079048 1.250689 41.858193
369 1 0.0 9.72306 1.281428 42.754452
370 1 0.0 8.209521 10.185093 32.110916
371 2 0.0 8.254921 10.547728 33.003881
372 1 0.0 7.744882 9.901712 33.507346
373 1 0.0 5.051613 8.858447 26.195212
374 2 0.0 5.887886 8.871994 25.714153
375 1 0.0 6.529635 8.933051 26.432055
376 1 0.0 8.364501 3.649936 38.84953
377 2 0.0 8.393972 3.590235 39.81209
378 1 0.0 8.495884 4.515495 40.065983
379 1 0.0 2.4893 8.939892 28.176262
380 2 0.0 1.62554 8.626206 28.470327
381 1 0.0 1.250122 8.279974 27.651708
382 1 0.0 11.029722 1.560768 29.080613
383 2 0.0 10.813446 1.265562 29.973379
384 1 0.0 11.025143 2.04698 30.498283
385 1 0.0 10.458137 2.65578 26.747448
386 2 0.0 11.029322 2.223752 26.100878
387 1 0.0 10.926854 1.293321 26.33487
388 1 0.0 6.167136 6.673925 42.149005
389 2 0.0 6.069701 6.756016 41.192594
390 1 0.0 6.242388 5.854039 40.896673
391 1 0.0 1.250181 3.343745 24.062016
392 2 0.0 1.51021 3.298437 23.133961
393 1 0.0 2.191482 2.615409 23.151143
394 1 0.0 5.697149 11.511727 35.922803
395 2 0.0 5.469745 11.511996 36.860482
396 1 0.0 5.39085 10.56854 37.046542
397 1 0.0 6.470615 3.986952 42.901989
398 2 0.0 7.388665 3.7222 42.767658
399 1 0.0 7.838711 4.574937 42.73229
400 1 0.0 11.004788 7.982967 29.814378
401 2 0.0 10.645542 8.877803 29.780244
402 1 0.0 10.068238 8.890255 30.553238
403 1 0.0 11.029747 5.100826 42.839424
404 2 0.0 10.435753 4.741389 42.169402
405 1 0.0 10.463418 3.796918 42.36476
406 1 0.0 3.704525 6.829867 32.853849
407 2 0.0 3.4275 6.477714 31.999333
408 1 0.0 2.83652 5.761408 32.261252
409 1 0.0 6.422839 1.267824 42.73443
410 2 0.0 5.656382 1.264341 42.148353
411 1 0.0 4.924825 1.2497 42.777291
412 1 0.0 9.614429 3.899111 33.577853
413 2 0.0 9.628938 3.826458 32.615842
414 1 0.0 10.567616 3.688009 32.440715
415 1 0.0 3.967928 2.546605 40.368208
416 2 0.0 3.844438 2.215859 39.470261
417 1 0.0 3.829937 1.261264 39.609877
418 1 0.0 2.186369 11.511935 28.193144
419 2 0.0 1.260385 11.300972 28.363446
420 1 0.0 1.250403 11.20928 29.323887
421 1 0.0 8.703527 2.591358 29.50836
422 2 0.0 8.391267 1.761996 29.126775
423 1 0.0 8.172622 1.250045 29.914845
424 1 0.0 1.899275 11.512235 39.208212
425 2 0.0 2.862044 11.495417 39.269419
426 1 0.0 3.120995 11.511953 38.340105
427 1 0.0 11.030196 7.460485 39.154654
428 2 0.0 10.992265 8.314712 38.707653
429 1 0.0 11.030147 8.929821 39.450054
430 1 0.0 1.248963 8.988762 39.450749
431 2 0.0 1.3113 8.102005 39.825889
432 1 0.0 1.250344 8.281274 40.771987
433 1 0.0 10.608942 4.336528 24.400089
434 2 0.0 9.657066 4.457384 24.501479
435 1 0.0 9.331157 3.553412 24.414466
436 1 0.0 6.323208 10.549174 42.803829
437 2 0.0 6.677001 9.656269 42.711608
438 1 0.0 6.372731 9.411642 41.829264
439 1 0.0 11.019099 2.834492 35.610858
440 2 0.0 11.029714 2.356242 36.448782
441 1 0.0 11.022025 1.437589 36.153872
442 1 0.0 2.187953 11.512004 33.76281
443 2 0.0 1.250343 11.47587 33.538009
444 1 0.0 1.2736 11.111854 32.644754
445 1 0.0 5.596371 11.494565 39.590037
446 2 0.0 6.36953 11.511448 40.167008
447 1 0.0 7.093898 11.490366 39.529984
448 1 0.0 1.249923 4.373919 27.748423
449 2 0.0 1.252908 4.049294 26.839818
450 1 0.0 1.249969 4.871325 26.334634
451 1 0.0 11.029826 1.986739 23.083167
452 2 0.0 10.594512 1.253331 23.534351
453 1 0.0 9.724964 1.250226 23.116224
454 1 0.0 8.650237 5.779747 30.947603
455 2 0.0 8.126305 5.253696 30.33139
456 1 0.0 7.635047 4.677357 30.929263
457 1 0.0 7.271405 4.438483 35.097306
458 2 0.0 6.795661 4.039726 34.358649
459 1 0.0 6.289231 3.346455 34.798943
460 1 0.0 8.366596 1.249987 25.380231
461 2 0.0 7.986051 1.743059 26.11713
462 1 0.0 7.174712 1.249919 26.288869
463 1 0.0 8.643299 6.648619 38.339585
464 2 0.0 7.921006 6.435337 37.736463
465 1 0.0 7.204601 6.228772 38.348875
466 1 0.0 8.524865 2.162944 35.885358
467 2 0.0 8.257224 1.250065 35.724194
468 1 0.0 7.339625 1.255952 36.022405
469 1 0.0 4.727209 1.273469 35.884126
470 2 0.0 4.559928 1.929848 36.571248
471 1 0.0 3.942057 2.525985 36.13101
472 1 0.0 5.16612 3.402362 30.998951
473 2 0.0 4.928954 4.309516 31.226498
474 1 0.0 5.193823 4.358178 32.153013
475 1 0.0 2.233676 1.251366 42.509003
476 2 0.0 1.308878 1.349243 42.766147
477 1 0.0 1.25121 2.295467 42.945839
478 1 0.0 11.029964 8.205979 23.09931
479 2 0.0 10.975725 7.437827 23.680648
480 1 0.0 10.86246 6.71749 23.048794
481 1 0.0 1.264627 7.399145 36.785569
482 2 0.0 2.107044 7.526725 37.23835
483 1 0.0 2.716262 7.636685 36.498273
484 1 0.0 7.046385 1.250129 33.269603
485 2 0.0 6.905824 1.473898 32.341636
486 1 0.0 7.336336 2.334963 32.276993
487 1 0.0 1.250285 1.560995 34.006874
488 2 0.0 1.67534 1.260759 33.194384
489 1 0.0 1.254267 1.820467 32.530775
490 1 0.0 6.273617 4.760673 28.358057
491 2 0.0 6.433986 3.841659 28.604328
492 1 0.0 6.713575 3.456457 27.765041
493 1 0.0 3.694759 3.575609 25.787082
494 2 0.0 4.286167 3.278769 26.489275
495 1 0.0 3.891692 3.688825 27.268504
496 1 0.0 1.250537 1.863872 28.475227
497 2 0.0 1.791093 1.250057 28.987071
498 1 0.0 1.350691 1.264934 29.845429
499 1 0.0 11.026114 1.249452 33.403245
500 2 0.0 10.091596 1.318406 33.63319
501 1 0.0 9.668258 1.249994 32.768864
502 1 0.0 3.61821 9.046758 31.119027
503 2 0.0 2.870037 9.121359 31.723696
504 1 0.0 2.135261 9.263677 31.11476
505 1 0.0 11.030425 8.7865 42.768213
506 2 0.0 10.943191 7.82728 42.825145
507 1 0.0 11.03174 7.564063 41.901116
508 1 0.0 3.692242 4.914754 23.309719
509 2 0.0 4.617258 4.675677 23.444406
510 1 0.0 4.65763 3.800474 23.040248
511 1 0.0 10.866971 11.510314 32.948445
512 2 0.0 10.961865 10.72799 33.505148
513 1 0.0 11.029794 10.023765 32.849095
514 1 0.0 11.029902 8.47037 35.403932
515 2 0.0 10.143021 8.844383 35.336775
516 1 0.0 9.774382 8.639837 36.204657
517 1 0.0 11.03001 11.511852 36.16879
518 2 0.0 10.917584 11.506177 37.12706
519 1 0.0 11.030052 10.57078 37.335234
520 1 0.0 8.136982 7.672249 29.023043
521 2 0.0 8.144674 8.549573 28.62155
522 1 0.0 7.646564 9.067592 29.265364
523 1 0.0 1.256518 1.249825 25.811729
524 2 0.0 2.163715 1.264853 25.483521
525 1 0.0 2.672348 1.250002 26.303293
526 1 0.0 7.154777 5.350121 25.823892
527 2 0.0 7.111168 6.263904 26.130574
528 1 0.0 7.882743 6.65458 25.702793
529 1 0.0 10.850681 1.249987 38.862105
530 2 0.0 9.931521 1.389906 39.120021
531 1 0.0 9.467122 1.24997 38.285932
532 1 0.0 9.733658 11.477173 40.150087
533 2 0.0 10.686448 11.510982 40.001754
534 1 0.0 11.029923 11.46569 40.902269
535 1 0.0 2.958613 7.796189 42.706442
536 2 0.0 3.885042 8.034481 42.832537
537 1 0.0 3.846107 8.998482 42.820709
538 1 0.0 4.642935 11.507284 28.773514
539 2 0.0 4.46072 10.577928 28.958036
540 1 0.0 5.246782 10.146349 28.601948
541 1 0.0 7.33072 1.249979 39.964086
542 2 0.0 6.537929 1.626371 39.563131
543 1 0.0 6.565888 1.249887 38.675194
544 1 0.0 8.553136 9.395527 38.551491
545 2 0.0 7.661561 9.239262 38.217384
546 1 0.0 7.212153 8.899227 39.00056
547 1 0.0 1.249987 10.151738 36.971335
548 2 0.0 1.493248 10.595694 36.149946
549 1 0.0 1.250354 11.510266 36.338397
550 1 0.0 4.783547 9.080519 33.997135
551 2 0.0 4.083066 8.890478 34.632873
552 1 0.0 3.833947 9.775592 34.92522
553 1 0.0 4.126309 1.25186 32.212103
554 2 0.0 4.305816 1.250007 33.160116
555 1 0.0 4.083038 2.155817 33.406758
556 1 0.0 2.109203 1.250329 37.462273
557 2 0.0 1.273027 1.252068 36.980859
558 1 0.0 1.250399 2.148326 36.624258
559 1 0.0 7.774991 11.511951 23.154663
560 2 0.0 8.513213 11.507808 23.775924
561 1 0.0 9.273481 11.512121 23.181848
562 1 0.0 2.633229 3.516843 29.941472
563 2 0.0 2.305658 3.465342 30.847562
564 1 0.0 1.3763 3.699905 30.736978
565 1 0.0 2.191354 6.135869 29.62197
566 2 0.0 1.250369 6.270065 29.787782
567 1 0.0 1.264695 6.906298 30.513011
568 1 0.0 3.802097 8.969919 38.631133
569 2 0.0 4.485118 8.913009 39.310248
570 1 0.0 4.020419 9.24411 40.08831
571 1 0.0 1.266218 11.408197 41.874154
572 2 0.0 1.251475 11.122297 42.795564
573 1 0.0 1.476685 10.187334 42.717603
574 1 0.0 4.34212 11.511988 23.196243
575 2 0.0 5.10299 10.94033 23.03738
576 1 0.0 4.878126 10.160079 23.558531
577 1 0.0 5.478257 1.249974 29.428408
578 2 0.0 4.519744 1.328722 29.350913
579 1 0.0 4.389981 1.251523 28.397941
580 1 0.0 11.029198 11.511656 26.214844
581 2 0.0 10.94286 11.502811 25.253896
582 1 0.0 11.031401 10.562913 25.054632
583 1 0.0 11.029767 8.799393 27.085702
584 2 0.0 10.964527 8.19449 26.336844
585 1 0.0 10.025464 8.245195 26.121103
586 1 0.0 11.029986 6.169407 33.415079
587 2 0.0 10.975517 6.389209 32.477169
588 1 0.0 11.030741 7.352326 32.494799
589 1 0.0 1.295324 8.910044 34.015922
590 2 0.0 1.276603 7.948895 34.09836
591 1 0.0 1.265686 7.669971 33.174761
592 1 0.0 8.171257 6.164036 22.946017
593 2 0.0 7.264358 5.895498 23.136738
594 1 0.0 7.332901 4.933313 23.115398
595 1 0.0 3.932687 6.240046 38.919025
596 2 0.0 3.720015 5.809575 39.755936
597 1 0.0 3.473448 6.560624 40.309183
598 1 0.0 8.418408 11.512081 35.520481
599 2 0.0 8.396039 10.90929 36.273538
600 1 0.0 8.21957 11.512081 37.005968
601 1 0.0 4.742907 6.677285 29.590345
602 2 0.0 4.881541 7.562336 29.231989
603 1 0.0 5.459342 7.384466 28.480018
604 1 0.0 1.24994 7.161413 24.37876
605 2 0.0 1.481208 6.301907 24.006312
606 1 0.0 1.250007 6.41888 23.076894
607 1 0.0 9.10802 5.304727 27.757743
608 2 0.0 9.788577 5.976903 27.63135
609 1 0.0 10.310453 5.599311 26.913003
610 1 0.0 1.351541 10.322333 25.809932
611 2 0.0 2.314444 10.271276 25.775819
612 1 0.0 2.454981 9.371819 25.456161
613 1 0.0 9.593921 5.136575 36.122804
614 2 0.0 10.127096 5.932141 36.240074
615 1 0.0 11.020572 5.595296 36.101546
616 1 0.0 1.26827 5.635637 41.480937
617 2 0.0 1.250545 5.762395 42.437269
618 1 0.0 1.262917 4.852834 42.758983
619 1 0.0 1.249963 4.756728 37.369051
620 2 0.0 1.778742 4.777409 38.175846
621 1 0.0 1.24997 5.348686 38.745931
622 1 0.0 1.249866 9.899722 23.106355
623 2 0.0 1.851234 10.654241 23.102882
624 1 0.0 1.250068 11.388847 23.275818
625 1 0.0 3.638031 5.137951 35.961015
626 2 0.0 4.30745 5.192971 35.268335
627 1 0.0 3.899901 4.684621 34.556691
628 1 0.0 7.239079 8.925157 23.075333
629 2 0.0 8.199268 8.90318 23.167571
630 1 0.0 8.306448 8.86367 24.125645
631 1 0.0 8.612451 11.161985 27.771637
632 2 0.0 8.60519 11.481054 26.86109
633 1 0.0 8.667816 10.658163 26.361208
634 1 0.0 5.645949 4.040185 38.923221
635 2 0.0 5.218338 3.967647 38.061339
636 1 0.0 5.976261 3.933486 37.465236
637 1 0.0 4.97528 7.39856 23.374225
638 2 0.0 4.158172 7.567264 23.858815
639 1 0.0 3.553664 7.816432 23.149281
640 1 0.0 6.294423 8.162321 36.096268
641 2 0.0 5.917211 7.275287 36.053429
642 1 0.0 5.249782 7.308878 36.749391
643 1 0.0 3.737062 3.732209 42.768413
644 2 0.0 3.827341 4.472873 42.156677
645 1 0.0 3.916962 5.220088 42.760491
646 1 0.0 4.838458 11.512257 25.915187
647 2 0.0 5.738803 11.477415 26.260324
648 1 0.0 6.263642 11.512047 25.451437
649 1 0.0 5.614242 10.889072 32.170729
650 2 0.0 5.732746 11.510256 32.899455
651 1 0.0 4.865433 11.489689 33.321709
652 1 0.0 11.031439 11.465177 30.276676
653 2 0.0 10.240388 11.502727 29.725512
654 1 0.0 9.53666 11.475448 30.38504
655 3 0.0 3.221987 11.514992 31.0937
656 3 0.0 7.065467 11.501839 30.007721
657 2 0.0 3.900381 11.511291 42.775331
658 1 0.0 3.908446 11.498631 41.809448
659 2 0.0 9.20938 10.617139 42.762779
660 1 0.0 8.823873 11.502548 42.738449
661 4 0.0 0.614 0.709014 45.446
662 4 0.0 0.614 0.709014 52.142
663 4 0.0 0.614 4.963014 45.446
664 4 0.0 0.614 4.963014 52.142
665 4 0.0 0.614 9.217015 45.446
666 4 0.0 0.614 9.217015 52.142
667 4 0.0 3.07 0.709014 45.446
668 4 0.0 3.07 0.709014 52.142
669 4 0.0 3.07 4.963014 45.446
670 4 0.0 3.07 4.963014 52.142
671 4 0.0 3.07 9.217015 45.446
672 4 0.0 3.07 9.217015 52.142
673 4 0.0 5.526 0.709014 45.446
674 4 0.0 5.526 0.709014 52.142
675 4 0.0 5.526 4.963014 45.446
676 4 0.0 5.526 4.963014 52.142
677 4 0.0 5.526 9.217015 45.446
678 4 0.0 5.526 9.217015 52.142
679 4 0.0 7.982 0.709014 45.446
680 4 0.0 7.982 0.709014 52.142
681 4 0.0 7.982 4.963014 45.446
682 4 0.0 7.982 4.963014 52.142
683 4 0.0 7.982 9.217015 45.446
684 4 0.0 7.982 9.217015 52.142
685 4 0.0 10.438 0.709014 45.446
686 4 0.0 10.438 0.709014 52.142
687 4 0.0 10.438 4.963014 45.446
688 4 0.0 10.438 4.963014 52.142
689 4 0.0 10.438 9.217015 45.446
690 4 0.0 10.438 9.217015 52.142
691 4 0.0 0.614 3.544986 45.446
692 4 0.0 0.614 3.544986 52.142
693 4 0.0 0.614 7.798986 45.446
694 4 0.0 0.614 7.798986 52.142
695 4 0.0 0.614 12.052986 45.446
696 4 0.0 0.614 12.052986 52.142
697 4 0.0 3.07 3.544986 45.446
698 4 0.0 3.07 3.544986 52.142
699 4 0.0 3.07 7.798986 45.446
700 4 0.0 3.07 7.798986 52.142
701 4 0.0 3.07 12.052986 45.446
702 4 0.0 3.07 12.052986 52.142
703 4 0.0 5.526 3.544986 45.446
704 4 0.0 5.526 3.544986 52.142
705 4 0.0 5.526 7.798986 45.446
706 4 0.0 5.526 7.798986 52.142
707 4 0.0 5.526 12.052986 45.446
708 4 0.0 5.526 12.052986 52.142
709 4 0.0 7.982 3.544986 45.446
710 4 0.0 7.982 3.544986 52.142
711 4 0.0 7.982 7.798986 45.446
712 4 0.0 7.982 7.798986 52.142
713 4 0.0 7.982 12.052986 45.446
714 4 0.0 7.982 12.052986 52.142
715 4 0.0 10.438 3.544986 45.446
716 4 0.0 10.438 3.544986 52.142
717 4 0.0 10.438 7.798986 45.446
718 4 0.0 10.438 7.798986 52.142
719 4 0.0 10.438 12.052986 45.446
720 4 0.0 10.438 12.052986 52.142
721 4 0.0 0.614 2.836014 48.794
722 4 0.0 0.614 7.090014 48.794
723 4 0.0 0.614 11.344015 48.794
724 4 0.0 3.07 2.836014 48.794
725 4 0.0 3.07 7.090014 48.794
726 4 0.0 3.07 11.344015 48.794
727 4 0.0 5.526 2.836014 48.794
728 4 0.0 5.526 7.090014 48.794
729 4 0.0 5.526 11.344015 48.794
730 4 0.0 7.982 2.836014 48.794
731 4 0.0 7.982 7.090014 48.794
732 4 0.0 7.982 11.344015 48.794
733 4 0.0 10.438 2.836014 48.794
734 4 0.0 10.438 7.090014 48.794
735 4 0.0 10.438 11.344015 48.794
736 4 0.0 0.614 1.417986 48.794
737 4 0.0 0.614 5.671986 48.794
738 4 0.0 0.614 9.925986 48.794
739 4 0.0 3.07 1.417986 48.794
740 4 0.0 3.07 5.671986 48.794
741 4 0.0 3.07 9.925986 48.794
742 4 0.0 5.526 1.417986 48.794
743 4 0.0 5.526 5.671986 48.794
744 4 0.0 5.526 9.925986 48.794
745 4 0.0 7.982 1.417986 48.794
746 4 0.0 7.982 5.671986 48.794
747 4 0.0 7.982 9.925986 48.794
748 4 0.0 10.438 1.417986 48.794
749 4 0.0 10.438 5.671986 48.794
750 4 0.0 10.438 9.925986 48.794
751 4 0.0 1.842 0.709014 48.794
752 4 0.0 1.842 4.963014 48.794
753 4 0.0 1.842 9.217015 48.794
754 4 0.0 4.298 0.709014 48.794
755 4 0.0 4.298 4.963014 48.794
756 4 0.0 4.298 9.217015 48.794
757 4 0.0 6.754 0.709014 48.794
758 4 0.0 6.754 4.963014 48.794
759 4 0.0 6.754 9.217015 48.794
760 4 0.0 9.21 0.709014 48.794
761 4 0.0 9.21 4.963014 48.794
762 4 0.0 9.21 9.217015 48.794
763 4 0.0 11.666 0.709014 48.794
764 4 0.0 11.666 4.963014 48.794
765 4 0.0 11.666 9.217015 48.794
766 4 0.0 1.842 3.544986 48.794
767 4 0.0 1.842 7.798986 48.794
768 4 0.0 1.842 12.052986 48.794
769 4 0.0 4.298 3.544986 48.794
770 4 0.0 4.298 7.798986 48.794
771 4 0.0 4.298 12.052986 48.794
772 4 0.0 6.754 3.544986 48.794
773 4 0.0 6.754 7.798986 48.794
774 4 0.0 6.754 12.052986 48.794
775 4 0.0 9.21 3.544986 48.794
776 4 0.0 9.21 7.798986 48.794
777 4 0.0 9.21 12.052986 48.794
778 4 0.0 11.666 3.544986 48.794
779 4 0.0 11.666 7.798986 48.794
780 4 0.0 11.666 12.052986 48.794
781 4 0.0 1.842 2.836014 45.446
782 4 0.0 1.842 2.836014 52.142
783 4 0.0 1.842 7.090014 45.446
784 4 0.0 1.842 7.090014 52.142
785 4 0.0 1.842 11.344015 45.446
786 4 0.0 1.842 11.344015 52.142
787 4 0.0 4.298 2.836014 45.446
788 4 0.0 4.298 2.836014 52.142
789 4 0.0 4.298 7.090014 45.446
790 4 0.0 4.298 7.090014 52.142
791 4 0.0 4.298 11.344015 45.446
792 4 0.0 4.298 11.344015 52.142
793 4 0.0 6.754 2.836014 45.446
794 4 0.0 6.754 2.836014 52.142
795 4 0.0 6.754 7.090014 45.446
796 4 0.0 6.754 7.090014 52.142
797 4 0.0 6.754 11.344015 45.446
798 4 0.0 6.754 11.344015 52.142
799 4 0.0 9.21 2.836014 45.446
800 4 0.0 9.21 2.836014 52.142
801 4 0.0 9.21 7.090014 45.446
802 4 0.0 9.21 7.090014 52.142
803 4 0.0 9.21 11.344015 45.446
804 4 0.0 9.21 11.344015 52.142
805 4 0.0 11.666 2.836014 45.446
806 4 0.0 11.666 2.836014 52.142
807 4 0.0 11.666 7.090014 45.446
808 4 0.0 11.666 7.090014 52.142
809 4 0.0 11.666 11.344015 45.446
810 4 0.0 11.666 11.344015 52.142
811 4 0.0 1.842 1.417986 45.446
812 4 0.0 1.842 1.417986 52.142
813 4 0.0 1.842 5.671986 45.446
814 4 0.0 1.842 5.671986 52.142
815 4 0.0 1.842 9.925986 45.446
816 4 0.0 1.842 9.925986 52.142
817 4 0.0 4.298 1.417986 45.446
818 4 0.0 4.298 1.417986 52.142
819 4 0.0 4.298 5.671986 45.446
820 4 0.0 4.298 5.671986 52.142
821 4 0.0 4.298 9.925986 45.446
822 4 0.0 4.298 9.925986 52.142
823 4 0.0 6.754 1.417986 45.446
824 4 0.0 6.754 1.417986 52.142
825 4 0.0 6.754 5.671986 45.446
826 4 0.0 6.754 5.671986 52.142
827 4 0.0 6.754 9.925986 45.446
828 4 0.0 6.754 9.925986 52.142
829 4 0.0 9.21 1.417986 45.446
830 4 0.0 9.21 1.417986 52.142
831 4 0.0 9.21 5.671986 45.446
832 4 0.0 9.21 5.671986 52.142
833 4 0.0 9.21 9.925986 45.446
834 4 0.0 9.21 9.925986 52.142
835 4 0.0 11.666 1.417986 45.446
836 4 0.0 11.666 1.417986 52.142
837 4 0.0 11.666 5.671986 45.446
838 4 0.0 11.666 5.671986 52.142
839 4 0.0 11.666 9.925986 45.446
840 4 0.0 11.666 9.925986 52.142
841 1 0.0 10.617819 1.249997 59.086799
842 2 0.0 11.028253 1.819072 59.749107
843 1 0.0 11.028158 1.249984 60.528268
844 1 0.0 9.705278 1.920753 56.579405
845 2 0.0 10.128202 1.251127 56.028324
846 1 0.0 11.029719 1.250592 56.372156