LAMMPS Description

  3 atoms

  2 atom types

  -2.0 22.0 xlo xhi
  -2.0 22.0 ylo yhi
-2.0 22.0 zlo zhi


Masses

1 15.9994 # O
2 1.008 # H

Atoms

1 1 2 0.4238 16.410846 11.184165 3.936692
2 1 1 -0.8476 16.374531 10.441963 4.552135
3 1 2 0.4238 16.134595 9.711468 3.969245
