LAMMPS Description

  2040 atoms
  4 atom types
  0.0 22.104 xlo xhi
  0.0 21.27 ylo yhi
  0.0 39.392 zlo zhi


Masses

1 1.008 # H
2 15.999 # O
3 22.99 # Na
4 12.011 # C

Atoms

1 4 0.0 0.614 0.709014 1.0
2 4 0.0 0.614 0.709014 7.696
3 4 0.0 0.614 4.963014 1.0
4 4 0.0 0.614 4.963014 7.696
5 4 0.0 0.614 9.217015 1.0
6 4 0.0 0.614 9.217015 7.696
7 4 0.0 0.614 13.471015 1.0
8 4 0.0 0.614 13.471015 7.696
9 4 0.0 0.614 17.725015 1.0
10 4 0.0 0.614 17.725015 7.696
11 4 0.0 3.07 0.709014 1.0
12 4 0.0 3.07 0.709014 7.696
13 4 0.0 3.07 4.963014 1.0
14 4 0.0 3.07 4.963014 7.696
15 4 0.0 3.07 9.217015 1.0
16 4 0.0 3.07 9.217015 7.696
17 4 0.0 3.07 13.471015 1.0
18 4 0.0 3.07 13.471015 7.696
19 4 0.0 3.07 17.725015 1.0
20 4 0.0 3.07 17.725015 7.696
21 4 0.0 5.526 0.709014 1.0
22 4 0.0 5.526 0.709014 7.696
23 4 0.0 5.526 4.963014 1.0
24 4 0.0 5.526 4.963014 7.696
25 4 0.0 5.526 9.217015 1.0
26 4 0.0 5.526 9.217015 7.696
27 4 0.0 5.526 13.471015 1.0
28 4 0.0 5.526 13.471015 7.696
29 4 0.0 5.526 17.725015 1.0
30 4 0.0 5.526 17.725015 7.696
31 4 0.0 7.982 0.709014 1.0
32 4 0.0 7.982 0.709014 7.696
33 4 0.0 7.982 4.963014 1.0
34 4 0.0 7.982 4.963014 7.696
35 4 0.0 7.982 9.217015 1.0
36 4 0.0 7.982 9.217015 7.696
37 4 0.0 7.982 13.471015 1.0
38 4 0.0 7.982 13.471015 7.696
39 4 0.0 7.982 17.725015 1.0
40 4 0.0 7.982 17.725015 7.696
41 4 0.0 10.438 0.709014 1.0
42 4 0.0 10.438 0.709014 7.696
43 4 0.0 10.438 4.963014 1.0
44 4 0.0 10.438 4.963014 7.696
45 4 0.0 10.438 9.217015 1.0
46 4 0.0 10.438 9.217015 7.696
47 4 0.0 10.438 13.471015 1.0
48 4 0.0 10.438 13.471015 7.696
49 4 0.0 10.438 17.725015 1.0
50 4 0.0 10.438 17.725015 7.696
51 4 0.0 12.894 0.709014 1.0
52 4 0.0 12.894 0.709014 7.696
53 4 0.0 12.894 4.963014 1.0
54 4 0.0 12.894 4.963014 7.696
55 4 0.0 12.894 9.217015 1.0
56 4 0.0 12.894 9.217015 7.696
57 4 0.0 12.894 13.471015 1.0
58 4 0.0 12.894 13.471015 7.696
59 4 0.0 12.894 17.725015 1.0
60 4 0.0 12.894 17.725015 7.696
61 4 0.0 15.350001 0.709014 1.0
62 4 0.0 15.350001 0.709014 7.696
63 4 0.0 15.350001 4.963014 1.0
64 4 0.0 15.350001 4.963014 7.696
65 4 0.0 15.350001 9.217015 1.0
66 4 0.0 15.350001 9.217015 7.696
67 4 0.0 15.350001 13.471015 1.0
68 4 0.0 15.350001 13.471015 7.696
69 4 0.0 15.350001 17.725015 1.0
70 4 0.0 15.350001 17.725015 7.696
71 4 0.0 17.806001 0.709014 1.0
72 4 0.0 17.806001 0.709014 7.696
73 4 0.0 17.806001 4.963014 1.0
74 4 0.0 17.806001 4.963014 7.696
75 4 0.0 17.806001 9.217015 1.0
76 4 0.0 17.806001 9.217015 7.696
77 4 0.0 17.806001 13.471015 1.0
78 4 0.0 17.806001 13.471015 7.696
79 4 0.0 17.806001 17.725015 1.0
80 4 0.0 17.806001 17.725015 7.696
81 4 0.0 20.262001 0.709014 1.0
82 4 0.0 20.262001 0.709014 7.696
83 4 0.0 20.262001 4.963014 1.0
84 4 0.0 20.262001 4.963014 7.696
85 4 0.0 20.262001 9.217015 1.0
86 4 0.0 20.262001 9.217015 7.696
87 4 0.0 20.262001 13.471015 1.0
88 4 0.0 20.262001 13.471015 7.696
89 4 0.0 20.262001 17.725015 1.0
90 4 0.0 20.262001 17.725015 7.696
91 4 0.0 0.614 3.544986 1.0
92 4 0.0 0.614 3.544986 7.696
93 4 0.0 0.614 7.798986 1.0
94 4 0.0 0.614 7.798986 7.696
95 4 0.0 0.614 12.052986 1.0
96 4 0.0 0.614 12.052986 7.696
97 4 0.0 0.614 16.306987 1.0
98 4 0.0 0.614 16.306987 7.696
99 4 0.0 0.614 20.560987 1.0
100 4 0.0 0.614 20.560987 7.696
101 4 0.0 3.07 3.544986 1.0
102 4 0.0 3.07 3.544986 7.696
103 4 0.0 3.07 7.798986 1.0
104 4 0.0 3.07 7.798986 7.696
105 4 0.0 3.07 12.052986 1.0
106 4 0.0 3.07 12.052986 7.696
107 4 0.0 3.07 16.306987 1.0
108 4 0.0 3.07 16.306987 7.696
109 4 0.0 3.07 20.560987 1.0
110 4 0.0 3.07 20.560987 7.696
111 4 0.0 5.526 3.544986 1.0
112 4 0.0 5.526 3.544986 7.696
113 4 0.0 5.526 7.798986 1.0
114 4 0.0 5.526 7.798986 7.696
115 4 0.0 5.526 12.052986 1.0
116 4 0.0 5.526 12.052986 7.696
117 4 0.0 5.526 16.306987 1.0
118 4 0.0 5.526 16.306987 7.696
119 4 0.0 5.526 20.560987 1.0
120 4 0.0 5.526 20.560987 7.696
121 4 0.0 7.982 3.544986 1.0
122 4 0.0 7.982 3.544986 7.696
123 4 0.0 7.982 7.798986 1.0
124 4 0.0 7.982 7.798986 7.696
125 4 0.0 7.982 12.052986 1.0
126 4 0.0 7.982 12.052986 7.696
127 4 0.0 7.982 16.306987 1.0
128 4 0.0 7.982 16.306987 7.696
129 4 0.0 7.982 20.560987 1.0
130 4 0.0 7.982 20.560987 7.696
131 4 0.0 10.438 3.544986 1.0
132 4 0.0 10.438 3.544986 7.696
133 4 0.0 10.438 7.798986 1.0
134 4 0.0 10.438 7.798986 7.696
135 4 0.0 10.438 12.052986 1.0
136 4 0.0 10.438 12.052986 7.696
137 4 0.0 10.438 16.306987 1.0
138 4 0.0 10.438 16.306987 7.696
139 4 0.0 10.438 20.560987 1.0
140 4 0.0 10.438 20.560987 7.696
141 4 0.0 12.894 3.544986 1.0
142 4 0.0 12.894 3.544986 7.696
143 4 0.0 12.894 7.798986 1.0
144 4 0.0 12.894 7.798986 7.696
145 4 0.0 12.894 12.052986 1.0
146 4 0.0 12.894 12.052986 7.696
147 4 0.0 12.894 16.306987 1.0
148 4 0.0 12.894 16.306987 7.696
149 4 0.0 12.894 20.560987 1.0
150 4 0.0 12.894 20.560987 7.696
151 4 0.0 15.350001 3.544986 1.0
152 4 0.0 15.350001 3.544986 7.696
153 4 0.0 15.350001 7.798986 1.0
154 4 0.0 15.350001 7.798986 7.696
155 4 0.0 15.350001 12.052986 1.0
156 4 0.0 15.350001 12.052986 7.696
157 4 0.0 15.350001 16.306987 1.0
158 4 0.0 15.350001 16.306987 7.696
159 4 0.0 15.350001 20.560987 1.0
160 4 0.0 15.350001 20.560987 7.696
161 4 0.0 17.806001 3.544986 1.0
162 4 0.0 17.806001 3.544986 7.696
163 4 0.0 17.806001 7.798986 1.0
164 4 0.0 17.806001 7.798986 7.696
165 4 0.0 17.806001 12.052986 1.0
166 4 0.0 17.806001 12.052986 7.696
167 4 0.0 17.806001 16.306987 1.0
168 4 0.0 17.806001 16.306987 7.696
169 4 0.0 17.806001 20.560987 1.0
170 4 0.0 17.806001 20.560987 7.696
171 4 0.0 20.262001 3.544986 1.0
172 4 0.0 20.262001 3.544986 7.696
173 4 0.0 20.262001 7.798986 1.0
174 4 0.0 20.262001 7.798986 7.696
175 4 0.0 20.262001 12.052986 1.0
176 4 0.0 20.262001 12.052986 7.696
177 4 0.0 20.262001 16.306987 1.0
178 4 0.0 20.262001 16.306987 7.696
179 4 0.0 20.262001 20.560987 1.0
180 4 0.0 20.262001 20.560987 7.696
181 4 0.0 0.614 2.836014 4.348
182 4 0.0 0.614 7.090014 4.348
183 4 0.0 0.614 11.344015 4.348
184 4 0.0 0.614 15.598015 4.348
185 4 0.0 0.614 19.852015 4.348
186 4 0.0 3.07 2.836014 4.348
187 4 0.0 3.07 7.090014 4.348
188 4 0.0 3.07 11.344015 4.348
189 4 0.0 3.07 15.598015 4.348
190 4 0.0 3.07 19.852015 4.348
191 4 0.0 5.526 2.836014 4.348
192 4 0.0 5.526 7.090014 4.348
193 4 0.0 5.526 11.344015 4.348
194 4 0.0 5.526 15.598015 4.348
195 4 0.0 5.526 19.852015 4.348
196 4 0.0 7.982 2.836014 4.348
197 4 0.0 7.982 7.090014 4.348
198 4 0.0 7.982 11.344015 4.348
199 4 0.0 7.982 15.598015 4.348
200 4 0.0 7.982 19.852015 4.348
201 4 0.0 10.438 2.836014 4.348
202 4 0.0 10.438 7.090014 4.348
203 4 0.0 10.438 11.344015 4.348
204 4 0.0 10.438 15.598015 4.348
205 4 0.0 10.438 19.852015 4.348
206 4 0.0 12.894 2.836014 4.348
207 4 0.0 12.894 7.090014 4.348
208 4 0.0 12.894 11.344015 4.348
209 4 0.0 12.894 15.598015 4.348
210 4 0.0 12.894 19.852015 4.348
211 4 0.0 15.350001 2.836014 4.348
212 4 0.0 15.350001 7.090014 4.348
213 4 0.0 15.350001 11.344015 4.348
214 4 0.0 15.350001 15.598015 4.348
215 4 0.0 15.350001 19.852015 4.348
216 4 0.0 17.806001 2.836014 4.348
217 4 0.0 17.806001 7.090014 4.348
218 4 0.0 17.806001 11.344015 4.348
219 4 0.0 17.806001 15.598015 4.348
220 4 0.0 17.806001 19.852015 4.348
221 4 0.0 20.262001 2.836014 4.348
222 4 0.0 20.262001 7.090014 4.348
223 4 0.0 20.262001 11.344015 4.348
224 4 0.0 20.262001 15.598015 4.348
225 4 0.0 20.262001 19.852015 4.348
226 4 0.0 0.614 1.417986 4.348
227 4 0.0 0.614 5.671986 4.348
228 4 0.0 0.614 9.925986 4.348
229 4 0.0 0.614 14.179986 4.348
230 4 0.0 0.614 18.433987 4.348
231 4 0.0 3.07 1.417986 4.348
232 4 0.0 3.07 5.671986 4.348
233 4 0.0 3.07 9.925986 4.348
234 4 0.0 3.07 14.179986 4.348
235 4 0.0 3.07 18.433987 4.348
236 4 0.0 5.526 1.417986 4.348
237 4 0.0 5.526 5.671986 4.348
238 4 0.0 5.526 9.925986 4.348
239 4 0.0 5.526 14.179986 4.348
240 4 0.0 5.526 18.433987 4.348
241 4 0.0 7.982 1.417986 4.348
242 4 0.0 7.982 5.671986 4.348
243 4 0.0 7.982 9.925986 4.348
244 4 0.0 7.982 14.179986 4.348
245 4 0.0 7.982 18.433987 4.348
246 4 0.0 10.438 1.417986 4.348
247 4 0.0 10.438 5.671986 4.348
248 4 0.0 10.438 9.925986 4.348
249 4 0.0 10.438 14.179986 4.348
250 4 0.0 10.438 18.433987 4.348
251 4 0.0 12.894 1.417986 4.348
252 4 0.0 12.894 5.671986 4.348
253 4 0.0 12.894 9.925986 4.348
254 4 0.0 12.894 14.179986 4.348
255 4 0.0 12.894 18.433987 4.348
256 4 0.0 15.350001 1.417986 4.348
257 4 0.0 15.350001 5.671986 4.348
258 4 0.0 15.350001 9.925986 4.348
259 4 0.0 15.350001 14.179986 4.348
260 4 0.0 15.350001 18.433987 4.348
261 4 0.0 17.806001 1.417986 4.348
262 4 0.0 17.806001 5.671986 4.348
263 4 0.0 17.806001 9.925986 4.348
264 4 0.0 17.806001 14.179986 4.348
265 4 0.0 17.806001 18.433987 4.348
266 4 0.0 20.262001 1.417986 4.348
267 4 0.0 20.262001 5.671986 4.348
268 4 0.0 20.262001 9.925986 4.348
269 4 0.0 20.262001 14.179986 4.348
270 4 0.0 20.262001 18.433987 4.348
271 4 0.0 1.842 0.709014 4.348
272 4 0.0 1.842 4.963014 4.348
273 4 0.0 1.842 9.217015 4.348
274 4 0.0 1.842 13.471015 4.348
275 4 0.0 1.842 17.725015 4.348
276 4 0.0 4.298 0.709014 4.348
277 4 0.0 4.298 4.963014 4.348
278 4 0.0 4.298 9.217015 4.348
279 4 0.0 4.298 13.471015 4.348
280 4 0.0 4.298 17.725015 4.348
281 4 0.0 6.754 0.709014 4.348
282 4 0.0 6.754 4.963014 4.348
283 4 0.0 6.754 9.217015 4.348
284 4 0.0 6.754 13.471015 4.348
285 4 0.0 6.754 17.725015 4.348
286 4 0.0 9.21 0.709014 4.348
287 4 0.0 9.21 4.963014 4.348
288 4 0.0 9.21 9.217015 4.348
289 4 0.0 9.21 13.471015 4.348
290 4 0.0 9.21 17.725015 4.348
291 4 0.0 11.666 0.709014 4.348
292 4 0.0 11.666 4.963014 4.348
293 4 0.0 11.666 9.217015 4.348
294 4 0.0 11.666 13.471015 4.348
295 4 0.0 11.666 17.725015 4.348
296 4 0.0 14.122 0.709014 4.348
297 4 0.0 14.122 4.963014 4.348
298 4 0.0 14.122 9.217015 4.348
299 4 0.0 14.122 13.471015 4.348
300 4 0.0 14.122 17.725015 4.348
301 4 0.0 16.578001 0.709014 4.348
302 4 0.0 16.578001 4.963014 4.348
303 4 0.0 16.578001 9.217015 4.348
304 4 0.0 16.578001 13.471015 4.348
305 4 0.0 16.578001 17.725015 4.348
306 4 0.0 19.034001 0.709014 4.348
307 4 0.0 19.034001 4.963014 4.348
308 4 0.0 19.034001 9.217015 4.348
309 4 0.0 19.034001 13.471015 4.348
310 4 0.0 19.034001 17.725015 4.348
311 4 0.0 21.490001 0.709014 4.348
312 4 0.0 21.490001 4.963014 4.348
313 4 0.0 21.490001 9.217015 4.348
314 4 0.0 21.490001 13.471015 4.348
315 4 0.0 21.490001 17.725015 4.348
316 4 0.0 1.842 3.544986 4.348
317 4 0.0 1.842 7.798986 4.348
318 4 0.0 1.842 12.052986 4.348
319 4 0.0 1.842 16.306987 4.348
320 4 0.0 1.842 20.560987 4.348
321 4 0.0 4.298 3.544986 4.348
322 4 0.0 4.298 7.798986 4.348
323 4 0.0 4.298 12.052986 4.348
324 4 0.0 4.298 16.306987 4.348
325 4 0.0 4.298 20.560987 4.348
326 4 0.0 6.754 3.544986 4.348
327 4 0.0 6.754 7.798986 4.348
328 4 0.0 6.754 12.052986 4.348
329 4 0.0 6.754 16.306987 4.348
330 4 0.0 6.754 20.560987 4.348
331 4 0.0 9.21 3.544986 4.348
332 4 0.0 9.21 7.798986 4.348
333 4 0.0 9.21 12.052986 4.348
334 4 0.0 9.21 16.306987 4.348
335 4 0.0 9.21 20.560987 4.348
336 4 0.0 11.666 3.544986 4.348
337 4 0.0 11.666 7.798986 4.348
338 4 0.0 11.666 12.052986 4.348
339 4 0.0 11.666 16.306987 4.348
340 4 0.0 11.666 20.560987 4.348
341 4 0.0 14.122 3.544986 4.348
342 4 0.0 14.122 7.798986 4.348
343 4 0.0 14.122 12.052986 4.348
344 4 0.0 14.122 16.306987 4.348
345 4 0.0 14.122 20.560987 4.348
346 4 0.0 16.578001 3.544986 4.348
347 4 0.0 16.578001 7.798986 4.348
348 4 0.0 16.578001 12.052986 4.348
349 4 0.0 16.578001 16.306987 4.348
350 4 0.0 16.578001 20.560987 4.348
351 4 0.0 19.034001 3.544986 4.348
352 4 0.0 19.034001 7.798986 4.348
353 4 0.0 19.034001 12.052986 4.348
354 4 0.0 19.034001 16.306987 4.348
355 4 0.0 19.034001 20.560987 4.348
356 4 0.0 21.490001 3.544986 4.348
357 4 0.0 21.490001 7.798986 4.348
358 4 0.0 21.490001 12.052986 4.348
359 4 0.0 21.490001 16.306987 4.348
360 4 0.0 21.490001 20.560987 4.348
361 4 0.0 1.842 2.836014 1.0
362 4 0.0 1.842 2.836014 7.696
363 4 0.0 1.842 7.090014 1.0
364 4 0.0 1.842 7.090014 7.696
365 4 0.0 1.842 11.344015 1.0
366 4 0.0 1.842 11.344015 7.696
367 4 0.0 1.842 15.598015 1.0
368 4 0.0 1.842 15.598015 7.696
369 4 0.0 1.842 19.852015 1.0
370 4 0.0 1.842 19.852015 7.696
371 4 0.0 4.298 2.836014 1.0
372 4 0.0 4.298 2.836014 7.696
373 4 0.0 4.298 7.090014 1.0
374 4 0.0 4.298 7.090014 7.696
375 4 0.0 4.298 11.344015 1.0
376 4 0.0 4.298 11.344015 7.696
377 4 0.0 4.298 15.598015 1.0
378 4 0.0 4.298 15.598015 7.696
379 4 0.0 4.298 19.852015 1.0
380 4 0.0 4.298 19.852015 7.696
381 4 0.0 6.754 2.836014 1.0
382 4 0.0 6.754 2.836014 7.696
383 4 0.0 6.754 7.090014 1.0
384 4 0.0 6.754 7.090014 7.696
385 4 0.0 6.754 11.344015 1.0
386 4 0.0 6.754 11.344015 7.696
387 4 0.0 6.754 15.598015 1.0
388 4 0.0 6.754 15.598015 7.696
389 4 0.0 6.754 19.852015 1.0
390 4 0.0 6.754 19.852015 7.696
391 4 0.0 9.21 2.836014 1.0
392 4 0.0 9.21 2.836014 7.696
393 4 0.0 9.21 7.090014 1.0
394 4 0.0 9.21 7.090014 7.696
395 4 0.0 9.21 11.344015 1.0
396 4 0.0 9.21 11.344015 7.696
397 4 0.0 9.21 15.598015 1.0
398 4 0.0 9.21 15.598015 7.696
399 4 0.0 9.21 19.852015 1.0
400 4 0.0 9.21 19.852015 7.696
401 4 0.0 11.666 2.836014 1.0
402 4 0.0 11.666 2.836014 7.696
403 4 0.0 11.666 7.090014 1.0
404 4 0.0 11.666 7.090014 7.696
405 4 0.0 11.666 11.344015 1.0
406 4 0.0 11.666 11.344015 7.696
407 4 0.0 11.666 15.598015 1.0
408 4 0.0 11.666 15.598015 7.696
409 4 0.0 11.666 19.852015 1.0
410 4 0.0 11.666 19.852015 7.696
411 4 0.0 14.122 2.836014 1.0
412 4 0.0 14.122 2.836014 7.696
413 4 0.0 14.122 7.090014 1.0
414 4 0.0 14.122 7.090014 7.696
415 4 0.0 14.122 11.344015 1.0
416 4 0.0 14.122 11.344015 7.696
417 4 0.0 14.122 15.598015 1.0
418 4 0.0 14.122 15.598015 7.696
419 4 0.0 14.122 19.852015 1.0
420 4 0.0 14.122 19.852015 7.696
421 4 0.0 16.578001 2.836014 1.0
422 4 0.0 16.578001 2.836014 7.696
423 4 0.0 16.578001 7.090014 1.0
424 4 0.0 16.578001 7.090014 7.696
425 4 0.0 16.578001 11.344015 1.0
426 4 0.0 16.578001 11.344015 7.696
427 4 0.0 16.578001 15.598015 1.0
428 4 0.0 16.578001 15.598015 7.696
429 4 0.0 16.578001 19.852015 1.0
430 4 0.0 16.578001 19.852015 7.696
431 4 0.0 19.034001 2.836014 1.0
432 4 0.0 19.034001 2.836014 7.696
433 4 0.0 19.034001 7.090014 1.0
434 4 0.0 19.034001 7.090014 7.696
435 4 0.0 19.034001 11.344015 1.0
436 4 0.0 19.034001 11.344015 7.696
437 4 0.0 19.034001 15.598015 1.0
438 4 0.0 19.034001 15.598015 7.696
439 4 0.0 19.034001 19.852015 1.0
440 4 0.0 19.034001 19.852015 7.696
441 4 0.0 21.490001 2.836014 1.0
442 4 0.0 21.490001 2.836014 7.696
443 4 0.0 21.490001 7.090014 1.0
444 4 0.0 21.490001 7.090014 7.696
445 4 0.0 21.490001 11.344015 1.0
446 4 0.0 21.490001 11.344015 7.696
447 4 0.0 21.490001 15.598015 1.0
448 4 0.0 21.490001 15.598015 7.696
449 4 0.0 21.490001 19.852015 1.0
450 4 0.0 21.490001 19.852015 7.696
451 4 0.0 1.842 1.417986 1.0
452 4 0.0 1.842 1.417986 7.696
453 4 0.0 1.842 5.671986 1.0
454 4 0.0 1.842 5.671986 7.696
455 4 0.0 1.842 9.925986 1.0
456 4 0.0 1.842 9.925986 7.696
457 4 0.0 1.842 14.179986 1.0
458 4 0.0 1.842 14.179986 7.696
459 4 0.0 1.842 18.433987 1.0
460 4 0.0 1.842 18.433987 7.696
461 4 0.0 4.298 1.417986 1.0
462 4 0.0 4.298 1.417986 7.696
463 4 0.0 4.298 5.671986 1.0
464 4 0.0 4.298 5.671986 7.696
465 4 0.0 4.298 9.925986 1.0
466 4 0.0 4.298 9.925986 7.696
467 4 0.0 4.298 14.179986 1.0
468 4 0.0 4.298 14.179986 7.696
469 4 0.0 4.298 18.433987 1.0
470 4 0.0 4.298 18.433987 7.696
471 4 0.0 6.754 1.417986 1.0
472 4 0.0 6.754 1.417986 7.696
473 4 0.0 6.754 5.671986 1.0
474 4 0.0 6.754 5.671986 7.696
475 4 0.0 6.754 9.925986 1.0
476 4 0.0 6.754 9.925986 7.696
477 4 0.0 6.754 14.179986 1.0
478 4 0.0 6.754 14.179986 7.696
479 4 0.0 6.754 18.433987 1.0
480 4 0.0 6.754 18.433987 7.696
481 4 0.0 9.21 1.417986 1.0
482 4 0.0 9.21 1.417986 7.696
483 4 0.0 9.21 5.671986 1.0
484 4 0.0 9.21 5.671986 7.696
485 4 0.0 9.21 9.925986 1.0
486 4 0.0 9.21 9.925986 7.696
487 4 0.0 9.21 14.179986 1.0
488 4 0.0 9.21 14.179986 7.696
489 4 0.0 9.21 18.433987 1.0
490 4 0.0 9.21 18.433987 7.696
491 4 0.0 11.666 1.417986 1.0
492 4 0.0 11.666 1.417986 7.696
493 4 0.0 11.666 5.671986 1.0
494 4 0.0 11.666 5.671986 7.696
495 4 0.0 11.666 9.925986 1.0
496 4 0.0 11.666 9.925986 7.696
497 4 0.0 11.666 14.179986 1.0
498 4 0.0 11.666 14.179986 7.696
499 4 0.0 11.666 18.433987 1.0
500 4 0.0 11.666 18.433987 7.696
501 4 0.0 14.122 1.417986 1.0
502 4 0.0 14.122 1.417986 7.696
503 4 0.0 14.122 5.671986 1.0
504 4 0.0 14.122 5.671986 7.696
505 4 0.0 14.122 9.925986 1.0
506 4 0.0 14.122 9.925986 7.696
507 4 0.0 14.122 14.179986 1.0
508 4 0.0 14.122 14.179986 7.696
509 4 0.0 14.122 18.433987 1.0
510 4 0.0 14.122 18.433987 7.696
511 4 0.0 16.578001 1.417986 1.0
512 4 0.0 16.578001 1.417986 7.696
513 4 0.0 16.578001 5.671986 1.0
514 4 0.0 16.578001 5.671986 7.696
515 4 0.0 16.578001 9.925986 1.0
516 4 0.0 16.578001 9.925986 7.696
517 4 0.0 16.578001 14.179986 1.0
518 4 0.0 16.578001 14.179986 7.696
519 4 0.0 16.578001 18.433987 1.0
520 4 0.0 16.578001 18.433987 7.696
521 4 0.0 19.034001 1.417986 1.0
522 4 0.0 19.034001 1.417986 7.696
523 4 0.0 19.034001 5.671986 1.0
524 4 0.0 19.034001 5.671986 7.696
525 4 0.0 19.034001 9.925986 1.0
526 4 0.0 19.034001 9.925986 7.696
527 4 0.0 19.034001 14.179986 1.0
528 4 0.0 19.034001 14.179986 7.696
529 4 0.0 19.034001 18.433987 1.0
530 4 0.0 19.034001 18.433987 7.696
531 4 0.0 21.490001 1.417986 1.0
532 4 0.0 21.490001 1.417986 7.696
533 4 0.0 21.490001 5.671986 1.0
534 4 0.0 21.490001 5.671986 7.696
535 4 0.0 21.490001 9.925986 1.0
536 4 0.0 21.490001 9.925986 7.696
537 4 0.0 21.490001 14.179986 1.0
538 4 0.0 21.490001 14.179986 7.696
539 4 0.0 21.490001 18.433987 1.0
540 4 0.0 21.490001 18.433987 7.696
541 3 0.0 16.201895 3.41395 16.297801
542 3 0.0 15.925976 10.647076 24.2712
543 3 0.0 10.100928 5.222924 23.442891
544 3 0.0 8.4141 5.19377 21.575095
545 3 0.0 3.696665 6.437307 29.188088
546 3 0.0 6.266656 8.27593 21.423665
547 2 0.0 5.425901 3.475369 25.7758
548 1 0.0 4.99161 4.322088 25.941975
549 2 0.0 17.604276 12.346186 15.536463
550 1 0.0 17.47576 12.630507 14.622242
551 2 0.0 4.89148 12.16283 26.05335
552 1 0.0 5.473755 11.408403 26.211309
553 2 0.0 20.503414 13.140181 14.015351
554 1 0.0 19.987208 13.512856 13.288851
555 2 0.0 9.399435 5.301967 18.977873
556 1 0.0 8.898154 6.06893 19.283881
557 2 0.0 4.069581 4.716217 21.202559
558 1 0.0 3.587592 5.41605 20.74313
559 1 0.0 9.873109 7.051061 16.287167
560 2 0.0 9.076983 7.226557 16.803246
561 1 0.0 8.411775 7.334406 16.112724
562 1 0.0 1.249881 6.808825 10.980898
563 2 0.0 1.24997 7.769206 10.888049
564 1 0.0 1.908813 7.902301 10.195832
565 1 0.0 8.93766 10.961708 27.124028
566 2 0.0 8.304921 11.384711 27.717039
567 1 0.0 8.742036 12.223081 27.909444
568 1 0.0 16.375294 2.331493 18.591169
569 2 0.0 16.34453 1.404756 18.324398
570 1 0.0 15.394983 1.250049 18.251052
571 1 0.0 5.365661 13.232033 19.213622
572 2 0.0 5.210332 13.684061 18.375471
573 1 0.0 5.746016 13.162445 17.765624
574 1 0.0 20.854638 12.605211 29.131256
575 2 0.0 20.783706 11.903527 28.472802
576 1 0.0 20.853911 11.110741 29.018251
577 1 0.0 6.965677 1.791038 13.098394
578 2 0.0 7.271483 1.251456 12.359281
579 1 0.0 6.499199 1.24992 11.780896
580 1 0.0 18.932156 18.636669 21.140738
581 2 0.0 18.789759 19.037864 20.274874
582 1 0.0 18.869441 19.978249 20.475574
583 1 0.0 18.705451 20.02 16.50313
584 2 0.0 18.444683 19.438144 17.227283
585 1 0.0 18.528462 20.021318 17.991379
586 1 0.0 20.854297 20.017912 21.99503
587 2 0.0 20.253261 20.020341 22.749817
588 1 0.0 20.853936 19.841002 23.483289
589 1 0.0 16.736849 8.683219 15.965162
590 2 0.0 17.301913 8.681131 15.18308
591 1 0.0 17.244294 7.761085 14.898213
592 1 0.0 1.617045 1.299073 14.112419
593 2 0.0 1.25226 1.803915 13.375521
594 1 0.0 1.883978 2.529186 13.298922
595 1 0.0 10.330822 13.896651 12.654375
596 2 0.0 10.473211 13.334048 13.425191
597 1 0.0 10.760071 12.507569 13.018254
598 1 0.0 13.387483 1.263681 22.237901
599 2 0.0 12.903033 1.860039 21.654276
600 1 0.0 12.317783 1.250738 21.188242
601 1 0.0 18.088166 20.020259 28.717205
602 2 0.0 17.783303 20.01699 27.801781
603 1 0.0 18.610029 19.905565 27.31695
604 1 0.0 1.249721 15.274217 19.289103
605 2 0.0 1.255611 16.071264 18.745379
606 1 0.0 1.937083 15.863445 18.094718
607 1 0.0 11.485474 15.901612 25.07328
608 2 0.0 10.942969 16.495174 25.606502
609 1 0.0 11.591773 17.144163 25.904531
610 1 0.0 5.679721 20.020225 18.717919
611 2 0.0 5.836297 19.785394 19.640574
612 1 0.0 4.987266 19.997519 20.046905
613 1 0.0 8.989981 1.289133 24.860037
614 2 0.0 8.749951 1.293807 25.794551
615 1 0.0 7.786996 1.249663 25.753054
616 1 0.0 10.990238 1.322309 15.799676
617 2 0.0 10.188679 1.37672 16.333994
618 1 0.0 10.53476 1.250003 17.225692
619 1 0.0 20.85414 7.389076 28.976889
620 2 0.0 20.852035 8.304642 29.281335
621 1 0.0 19.908914 8.507856 29.294836
622 1 0.0 4.187383 1.249722 29.204232
623 2 0.0 5.091928 1.50631 28.987638
624 1 0.0 5.154834 1.25001 28.059572
625 1 0.0 15.514408 15.539065 29.080614
626 2 0.0 15.311872 15.731102 28.157004
627 1 0.0 15.778948 15.02182 27.699062
628 1 0.0 3.218295 20.019968 18.280513
629 2 0.0 3.062116 20.016782 17.328383
630 1 0.0 3.387107 19.144011 17.076182
631 1 0.0 3.319826 16.348348 26.220808
632 2 0.0 3.751925 17.127575 25.850605
633 1 0.0 3.803605 17.710106 26.618029
634 1 0.0 7.1615 17.318659 21.331488
635 2 0.0 6.487817 17.611043 20.705695
636 1 0.0 5.785666 17.911928 21.295107
637 1 0.0 16.351721 1.497763 26.598166
638 2 0.0 17.020276 1.411102 27.28844
639 1 0.0 17.819575 1.250309 26.772474
640 1 0.0 7.06458 3.714521 20.078199
641 2 0.0 7.11777 2.996701 20.72074
642 1 0.0 6.650408 3.371434 21.477115
643 1 0.0 7.471112 1.250147 22.874743
644 2 0.0 6.732327 1.343227 23.488328
645 1 0.0 5.972604 1.250074 22.900879
646 1 0.0 15.022877 17.50952 11.319038
647 2 0.0 15.073961 17.931045 12.185445
648 1 0.0 15.990701 17.7629 12.434979
649 1 0.0 1.302214 4.127994 22.199333
650 2 0.0 1.668624 3.464387 21.602406
651 1 0.0 1.313664 3.745302 20.750324
652 1 0.0 2.187833 14.835387 15.82974
653 2 0.0 2.927181 15.212488 15.337689
654 1 0.0 3.441647 15.629196 16.039566
655 1 0.0 13.158245 13.846073 27.679574
656 2 0.0 13.336681 13.16869 27.016048
657 1 0.0 12.454812 12.997676 26.663889
658 1 0.0 1.249555 16.922806 27.881889
659 2 0.0 1.812175 17.587203 28.297807
660 1 0.0 1.249825 17.903525 29.015202
661 1 0.0 6.760827 20.02 10.939602
662 2 0.0 6.40769 19.323416 10.373017
663 1 0.0 6.601285 18.530679 10.88784
664 1 0.0 6.282812 6.05043 16.374734
665 2 0.0 6.301521 5.484378 17.155881
666 1 0.0 7.178182 5.668565 17.51434
667 1 0.0 5.549643 12.3645 29.215695
668 2 0.0 5.577853 11.524021 28.74267
669 1 0.0 5.729781 10.896814 29.459944
670 1 0.0 20.854109 16.28591 16.65022
671 2 0.0 20.528056 15.392844 16.485674
672 1 0.0 19.582024 15.493448 16.64647
673 1 0.0 20.712803 9.484933 17.268924
674 2 0.0 19.804643 9.457998 17.59369
675 1 0.0 19.304686 9.337529 16.777306
676 1 0.0 18.185398 5.81154 10.195982
677 2 0.0 18.248364 4.886529 10.463084
678 1 0.0 17.330754 4.596398 10.394031
679 1 0.0 20.792991 2.783909 16.64506
680 2 0.0 20.516388 3.680856 16.868511
681 1 0.0 19.784882 3.822234 16.255433
682 1 0.0 2.659238 15.236899 22.676004
683 2 0.0 2.193092 14.605118 22.115188
684 1 0.0 1.27047 14.829028 22.287191
685 1 0.0 15.497863 11.570358 13.520429
686 2 0.0 14.855868 12.223098 13.824942
687 1 0.0 14.460998 12.516351 12.994862
688 1 0.0 4.477652 7.398511 25.710386
689 2 0.0 4.300477 7.303688 26.654087
690 1 0.0 3.884833 6.433782 26.69226
691 1 0.0 18.742261 19.89158 24.82056
692 2 0.0 18.510635 18.96017 24.919445
693 1 0.0 18.600861 18.635446 24.015361
694 1 0.0 9.656121 11.03028 15.835255
695 2 0.0 9.12399 10.334553 16.23992
696 1 0.0 9.581525 9.53751 15.946088
697 1 0.0 1.356202 11.732705 15.80016
698 2 0.0 1.254746 10.869839 15.38049
699 1 0.0 1.603828 10.277057 16.05703
700 1 0.0 15.669312 6.708292 17.135372
701 2 0.0 14.907915 7.235328 16.864334
702 1 0.0 14.724704 6.883012 15.984981
703 1 0.0 5.028337 15.731238 12.592354
704 2 0.0 4.596397 16.549793 12.865025
705 1 0.0 3.67707 16.270271 12.952535
706 1 0.0 20.215954 6.571578 23.364183
707 2 0.0 20.492495 7.441569 23.676584
708 1 0.0 20.853987 7.835873 22.873588
709 1 0.0 18.379665 12.948442 29.20968
710 2 0.0 18.554552 13.894883 29.141737
711 1 0.0 17.663101 14.26372 29.15686
712 1 0.0 1.251061 8.57653 28.827757
713 2 0.0 1.930431 8.19458 29.396549
714 1 0.0 2.666934 8.803552 29.263618
715 1 0.0 1.249716 4.856158 28.980504
716 2 0.0 1.272227 5.82072 28.972387
717 1 0.0 1.294518 6.011455 28.026831
718 1 0.0 3.622203 20.018727 12.613695
719 2 0.0 3.977456 19.216549 13.015266
720 1 0.0 4.925555 19.325912 12.873488
721 1 0.0 6.074978 5.990646 20.398486
722 2 0.0 5.723686 6.106306 19.507323
723 1 0.0 6.023141 6.997228 19.28929
724 1 0.0 10.740505 7.156334 28.065913
725 2 0.0 10.038687 6.494269 28.057277
726 1 0.0 9.279868 7.004401 28.365355
727 1 0.0 16.540814 13.861868 12.657644
728 2 0.0 16.209597 14.401102 13.385982
729 1 0.0 15.435659 14.818514 12.988814
730 1 0.0 13.351268 16.201827 12.996372
731 2 0.0 13.056638 15.663276 13.740758
732 1 0.0 12.743116 14.865571 13.297673
733 1 0.0 8.800416 7.821641 23.507531
734 2 0.0 8.212955 7.240591 23.00931
735 1 0.0 7.698366 6.82689 23.712875
736 1 0.0 14.47053 20.020006 15.333984
737 2 0.0 15.317414 19.979221 14.873464
738 1 0.0 15.220315 19.175289 14.348851
739 1 0.0 6.426322 3.784879 15.326649
740 2 0.0 5.875721 3.222093 15.88438
741 1 0.0 5.416367 2.681749 15.230181
742 1 0.0 8.995001 16.214469 10.261457
743 2 0.0 9.396287 15.498024 10.768042
744 1 0.0 9.080248 14.718542 10.295303
745 1 0.0 13.1675 11.988687 23.568204
746 2 0.0 12.296251 12.31987 23.817599
747 1 0.0 11.72467 11.58316 23.569592
748 1 0.0 11.572792 19.712571 19.926178
749 2 0.0 11.033645 19.28631 19.248996
750 1 0.0 10.88808 20.008843 18.626331
751 1 0.0 4.304216 4.012295 29.191232
752 2 0.0 3.419293 3.628433 29.168547
753 1 0.0 3.329506 3.389841 28.237974
754 1 0.0 1.285895 3.410321 15.637955
755 2 0.0 1.248319 3.706316 16.555522
756 1 0.0 1.326707 4.663178 16.459476
757 1 0.0 8.323552 19.064863 19.749735
758 2 0.0 8.398844 19.985201 19.46998
759 1 0.0 8.286204 19.912751 18.514461
760 1 0.0 20.47719 16.5485 20.062398
761 2 0.0 19.649358 16.090261 19.873544
762 1 0.0 19.173082 16.746744 19.350911
763 1 0.0 4.265563 5.041819 15.29619
764 2 0.0 3.584023 4.371197 15.425505
765 1 0.0 3.446712 4.050735 14.525836
766 1 0.0 18.901467 17.319364 10.527936
767 2 0.0 18.499797 16.475424 10.288395
768 1 0.0 17.558878 16.671545 10.373028
769 1 0.0 11.707625 20.02 13.091688
770 2 0.0 12.665743 20.010087 13.205114
771 1 0.0 12.88476 19.100399 12.96963
772 1 0.0 17.923197 17.552659 28.285503
773 2 0.0 17.76416 16.805883 28.875406
774 1 0.0 18.661611 16.55538 29.125973
775 1 0.0 17.273771 5.263394 15.00141
776 2 0.0 16.645778 5.123725 14.282333
777 1 0.0 17.03387 5.651188 13.573729
778 1 0.0 5.922042 12.07449 13.420067
779 2 0.0 5.993861 11.390888 12.742952
780 1 0.0 6.039727 10.58742 13.275202
781 1 0.0 13.53425 3.21389 29.295792
782 2 0.0 14.220099 3.891104 29.339899
783 1 0.0 14.523659 3.927017 28.424741
784 1 0.0 5.17301 5.831089 23.640299
785 2 0.0 5.089042 6.329127 22.818191
786 1 0.0 4.202633 6.701245 22.900428
787 1 0.0 16.06332 19.800558 18.343707
788 2 0.0 15.865461 19.903555 17.404986
789 1 0.0 15.988571 19.005 17.075752
790 1 0.0 15.914596 7.079924 25.504054
791 2 0.0 16.341083 7.297969 26.34162
792 1 0.0 16.106589 8.227791 26.448379
793 1 0.0 4.411987 7.843941 10.195809
794 2 0.0 4.725783 8.754528 10.253396
795 1 0.0 5.147159 8.765449 11.121311
796 1 0.0 3.537874 14.837024 10.196012
797 2 0.0 4.230551 14.354311 10.663067
798 1 0.0 3.716903 13.795988 11.259217
799 1 0.0 20.85404 1.269825 29.016767
800 2 0.0 20.114128 1.249956 28.397825
801 1 0.0 19.355486 1.265486 28.99379
802 1 0.0 6.771193 13.951648 23.351595
803 2 0.0 6.170499 13.469309 22.770674
804 1 0.0 5.615561 12.99879 23.404401
805 1 0.0 20.853903 9.403969 25.230901
806 2 0.0 20.815035 9.367876 26.194301
807 1 0.0 20.853917 10.30261 26.43034
808 1 0.0 1.572981 5.670155 14.184529
809 2 0.0 1.249802 5.868439 13.29729
810 1 0.0 1.292684 5.003525 12.871803
811 1 0.0 15.723823 6.511145 10.443938
812 2 0.0 16.183565 6.948234 11.170948
813 1 0.0 16.550258 7.727049 10.73513
814 1 0.0 4.220349 15.130901 29.002386
815 2 0.0 3.524236 15.782246 29.151145
816 1 0.0 2.765026 15.22066 29.349067
817 1 0.0 1.262547 16.11733 11.67813
818 2 0.0 1.250024 15.576322 10.879314
819 1 0.0 1.455897 16.225523 10.195861
820 1 0.0 7.145673 19.958128 21.765737
821 2 0.0 6.654248 20.01686 22.593992
822 1 0.0 7.363971 20.009674 23.247594
823 1 0.0 4.703122 4.175689 11.000149
824 2 0.0 4.757472 3.645681 10.195729
825 1 0.0 5.510718 3.073172 10.38496
826 1 0.0 11.291454 3.890799 16.436355
827 2 0.0 10.708742 4.217672 17.132455
828 1 0.0 11.0468 3.755014 17.90874
829 1 0.0 8.600893 14.667217 21.80562
830 2 0.0 8.027265 14.985299 21.097999
831 1 0.0 7.81279 14.167664 20.632781
832 1 0.0 8.201386 9.319125 19.717576
833 2 0.0 7.438084 9.327686 19.127449
834 1 0.0 7.778955 8.862048 18.354182
835 1 0.0 11.039616 4.960498 13.954491
836 2 0.0 10.947301 4.207066 13.358863
837 1 0.0 11.340379 3.494299 13.876943
838 1 0.0 20.854059 1.249929 14.200757
839 2 0.0 20.705793 1.977291 13.584385
840 1 0.0 20.854013 2.747668 14.146082
841 1 0.0 9.376323 4.54244 29.472071
842 2 0.0 9.443538 3.892439 28.762187
843 1 0.0 9.123779 3.091409 29.194688
844 1 0.0 12.2016 5.283469 11.483226
845 2 0.0 12.291986 6.176569 11.129452
846 1 0.0 12.464297 6.004458 10.195835
847 1 0.0 11.199733 10.589357 20.623148
848 2 0.0 11.936357 10.851665 21.18842
849 1 0.0 12.641263 10.991908 20.544686
850 1 0.0 3.961473 12.341933 21.648741
851 2 0.0 3.549705 12.607877 20.817672
852 1 0.0 3.594087 11.79259 20.303579
853 1 0.0 6.839066 13.607568 10.40772
854 2 0.0 6.71667 14.319387 11.047475
855 1 0.0 6.614352 15.087917 10.473152
856 1 0.0 1.274463 19.103883 19.558107
857 2 0.0 1.250523 19.464411 20.452758
858 1 0.0 2.114715 19.888229 20.519871
859 1 0.0 20.81102 16.86487 14.218788
860 2 0.0 20.854054 17.149971 13.298017
861 1 0.0 20.78138 16.31143 12.826295
862 1 0.0 18.806807 1.250002 19.96823
863 2 0.0 19.612405 1.515626 20.428021
864 1 0.0 19.944553 2.219269 19.857479